# vtk DataFile Version 2.0
Really cool data
ASCII
DATASET STRUCTURED_POINTS
DIMENSIONS 200 200 1
ORIGIN 0 0 0
SPACING 1 1 1
POINT_DATA 40000
SCALARS temperature double 1
LOOKUP_TABLE default
18.942714558893368 18.204600184963834 17.48582041708541 16.98461497177514 16.617293357680882 16.139747719988605 15.487920126231378 14.908949846510954 14.722897066547475 14.975975949511016 15.427651161670317 15.913427500868064 16.497776851632942 17.21051410335027 17.775023953740437 17.84936973651926 17.4410012796701 16.882968870571897 16.49980594968946 16.3292513700621 16.197483830888533 16.05799694441045 16.0661542660495 16.32893480001877 16.785169637322685 17.272296630721982 17.546148274791857 17.425859744055675 17.0622336057865 16.869469807914534 17.06406873683367 17.40743517088105 17.49001455088285 17.18310857217161 16.692526538591466 16.24645497373747 15.922154057766079 15.765649473795985 15.865057330272897 16.30555255928165 17.043595254460595 17.84921019774795 18.474819260056446 18.825181361100796 18.883931574452482 18.595864477040916 17.98048364192246 17.217968702644548 16.484627102851164 15.83895472714247 15.320638738290443 15.035744327317115 15.099541258990957 15.515259170582372 16.092740284656994 16.572439559854004 16.832463495235704 16.90444521811294 16.85185961305093 16.727929652240906 16.611479073037245 16.549389803629136 16.489403133270006 16.361681173942102 16.230509567099443 16.259471152902808 16.54504547075355 17.002437324792016 17.39227666300405 17.5464001139115 17.47916684830189 17.32529687418372 17.230068303573653 17.308970023155727 17.542539960940463 17.754567834287414 17.815192242698675 17.75665474367402 17.719226767161825 17.843382127454092 18.204760090074714 18.740981896543907 19.24428216801284 19.58091683230876 19.766303608973583 19.840641033289135 19.83401760148889 19.816013686644965 19.853165850482174 19.906874397230595 19.839441550642388 19.565528359775932 19.062087430766884 18.34099291019746 17.522255209033126 16.880134570704268 16.6401910839033 16.74010709453107 16.997452906375642 17.382553463850684 17.922187931027004 18.529483677951283 19.002530698236658 19.164114324609137 19.09016269767735 19.039235701109707 19.12613741399014 19.176426854350346 18.902327491144945 18.230674284626335 17.418462811511453 16.827336268555918 16.607640640869082 16.605798550724778 16.592765739119994 16.526742827972786 16.509564778861932 16.61728727640751 16.878469874696762 17.29736218615957 17.851440458827586 18.476655297263026 19.086871858514964 19.515421717212767 19.530085451640662 19.09844296440576 18.484524235774735 17.989955920130516 17.741780585725397 17.666244176471178 17.69383091499445 17.880692846150673 18.20671101497127 18.474456327820526 18.4682254717166 18.16085816604164 17.693218345198176 17.19167252163291 16.73101647140392 16.434372997391378 16.360014762025124 16.406145680880456 16.452704188616487 16.429578205546914 16.339041447873612 16.247934485280396 16.27415660176124 16.521221466195723 17.071980333696708 17.903310600125714 18.761852181502547 19.285667833298795 19.348774418855616 19.115107646313948 18.768426054909096 18.370335541243932 17.865626966533938 17.20820210328171 16.506557957449274 15.983551311691466 15.806060188276948 15.95202252705246 16.241553751808265 16.532370820449554 16.822469915427217 17.156283835072784 17.50485314878113 17.785074237098573 17.87969999836016 17.703137777669905 17.32200199235422 16.9599271212552 16.872612970443164 17.156158783447708 17.6426944391575 18.04351461709393 18.16210029926086 17.976889115908993 17.634507902586975 17.294125144127193 16.980124357659236 16.601282232914787 16.14382981428098 15.7363715079441 15.489452908035346 15.416775384374438 15.512071487081048 15.813962785038097 16.347308453082274 17.06794437260483 17.88361956324469 18.671148417264842 19.306464380451093 19.704820605131044 19.8488018817606 19.850138084545236 19.856754751506905 19.855425090700372 19.75138637900358 19.470414675171043 18.37166808256403 17.72969962066243 17.07913555680038 16.615492002589043 16.30243381749152 15.914548461208538 15.376059937587222 14.918853964623644 14.818812012400105 15.082707399984844 15.49146421311006 15.95024267988104 16.577636965257316 17.401899155072357 18.099825679895478 18.278419492283348 17.94458875286848 17.45903129747668 17.152580071963442 17.044285364431914 16.948546738706597 16.838433891004186 16.877863580661693 17.153290308147497 17.58003960004638 17.979370924108128 18.095187887811655 17.779983952628193 17.268187507574897 17.022875648444675 17.2138125158446 17.525010341274168 17.52377960720889 17.10882738455487 16.536399540053644 16.093737607863464 15.879684867735316 15.890783238200905 16.123197888564246 16.601881086275043 17.299825355528608 18.050791818636146 18.65248018232289 18.992929574118357 19.01600185732104 18.65545252232055 17.93331639410722 17.034274521257615 16.17447527540509 15.464852692896228 14.965869888214232 14.781859393470674 15.009327675788715 15.602320402144999 16.342274321099797 17.002378974059745 17.477091780620555 17.72070936722666 17.691818468621623 17.42011103783166 17.064316053103507 16.781587521884543 16.59560577848492 16.45888021378693 16.396640619073846 16.479845984064635 16.709468994025336 17.00321095195242 17.25639226749819 17.40963443021925 17.42378677939777 17.300495565703454 17.13438222973039 17.100280043188143 17.241882385056442 17.417330344308688 17.513600498695585 17.529695620990516 17.53908881758915 17.681998301027765 18.122111819873556 18.854027084230147 19.62209465760239 20.16623521419595 20.3703339855029 20.23480139373677 19.882141538289485 19.54139748326036 19.402373934301536 19.46517404454537 19.52779552233123 19.370332518751827 18.88051061647431 18.108644171477597 17.27031712411587 16.671296968502297 16.50371383101955 16.656672513274188 16.911117720854495 17.22651917296201 17.663670236392267 18.18823472529671 18.615055374282154 18.74310181635056 18.61656394435961 18.48143587189964 18.467697434450756 18.44993384370356 18.19468082414334 17.62293641484796 16.940368517160305 16.489751510485974 16.455149781642252 16.688749065007848 16.903016327052367 16.998699233683094 17.047568698176352 17.114501427641546 17.26881714805397 17.59584806285369 18.10777375413957 18.704691137228934 19.252085891522228 19.577763580973652 19.4778604073172 18.95385291142822 18.30246435851114 17.823913478753152 17.60237235025097 17.557184738298208 17.666052946865996 18.006865911941393 18.511811512485366 18.89117554369229 18.844410306847838 18.34056177985226 17.61706717594158 16.920590745830776 16.38500657168485 16.098403028951452 16.045566534076148 16.101020683991003 16.17861692771204 16.241090819368143 16.270194136544287 16.288921193290797 16.37711917255557 16.590039761695273 16.992780419999384 17.627110250605366 18.3231945066848 18.75801395240077 18.80716618271783 18.637860182614894 18.448704198980383 18.28971581374787 18.029010119384782 17.533064621296568 16.891788556824725 16.3589449849778 16.116563428650416 16.133777346217165 16.24827444925618 16.379821117817876 16.576391617917267 16.879995256588145 17.239340844436683 17.56967032458631 17.75397232501315 17.664465064606944 17.286016797535392 16.784680730153607 16.468553597879456 16.551154324737748 16.919090951511073 17.279254513221726 17.44325911622398 17.400459722057278 17.25952103529504 17.10288261411603 16.90185484720623 16.56854079458415 16.143851517916872 15.804049725329614 15.640502904191452 15.62247799227821 15.7277879781322 16.00007364843781 16.453369802278406 17.03168293341102 17.688031407521596 18.370047071208457 18.97023847870562 19.35088352072387 19.431448865565862 19.310124509584345 19.18451295416514 19.10944433069842 19.015805874063226 18.804637228529742 17.64122150210222 17.24577530792446 16.84341825263827 16.591573732076704 16.46627885901848 16.229543649989875 15.773021121724023 15.320081955924355 15.15586087627245 15.324009376807048 15.657586387858531 16.089365386612602 16.73695712512067 17.62655184439985 18.442068181861103 18.766644596196944 18.548384115296187 18.092128796994203 17.728223257861888 17.54514644198735 17.446191995136612 17.44234448199895 17.631500777189245 17.995646933983345 18.40361731926889 18.696591842816336 18.666598695193677 18.221446538538377 17.627111597164472 17.32135301015117 17.425711129790464 17.63020399702355 17.566590923281847 17.170396477155936 16.6672765972539 16.30253524439681 16.164159299149006 16.238907508295213 16.48522215344775 16.88802035964625 17.429491488683265 18.01131847951855 18.508235019946735 18.82295233043336 18.85242538815229 18.495704383834422 17.784489469472273 16.924854271706774 16.14454862305225 15.537919924584978 15.139757499273507 15.060305780690314 15.41092550233753 16.12363985055886 16.96567902461167 17.740966820408424 18.351983773766523 18.691818845517297 18.652106482959184 18.244060015710524 17.668383218358354 17.17753722394921 16.89134572250761 16.780221073168065 16.790703592482828 16.88488606215917 17.004384874049038 17.12267004476976 17.28909261657412 17.519350465257293 17.670656190132725 17.57493156269183 17.258164667670798 16.958593665640045 16.84364841341514 16.893473394475194 17.034745820501175 17.191624798631747 17.33034152879556 17.561126116952646 18.090792239567392 18.94480259710132 19.85219267669766 20.486112536956657 20.636842006798275 20.2702831311949 19.592070502419695 18.968001659104132 18.6806725874457 18.74953089417259 18.9155934546258 18.86868985978113 18.46436242943399 17.796645143691347 17.12472126363491 16.73187310247726 16.74525202749189 17.004557247025783 17.26670757904893 17.48383163776659 17.74953119356839 18.080068227888216 18.32329828713124 18.295601945188114 18.046057845076362 17.81478962488307 17.727877865593957 17.68812906978248 17.523622495047352 17.17586872025417 16.780483456337233 16.589953320182683 16.76600286503193 17.175001760012513 17.51548450559421 17.665745191674308 17.699124190674585 17.700355204109176 17.777393447697825 18.06193490284508 18.578299894066156 19.190700228788213 19.705968445506414 19.921248353940463 19.66618948739747 19.009777000553168 18.30597397654399 17.860859493602526 17.70589708110639 17.72459875061094 17.900653769222863 18.306985833020253 18.849481064238432 19.213777395268913 19.08931762468591 18.4637022573197 17.624527723020805 16.863922813486234 16.320793916753427 16.047580955786295 16.00623852446922 16.087690148868866 16.231607499072055 16.395853453909595 16.51335270432963 16.575649431366447 16.670953285564014 16.83979669128167 17.10047562785339 17.504996867477367 17.961025342332732 18.23128209343619 18.248568223771347 18.20276380936937 18.27282269997991 18.444115796181357 18.498162853862087 18.231764555222817 17.701546724927834 17.153239405827474 16.773553013898766 16.555910900951854 16.399694490712502 16.295592208709508 16.330354742143143 16.53994631256878 16.8521380265565 17.191484361705875 17.47460231969556 17.562189245106904 17.343142952941715 16.877421982078516 16.464007010967748 16.386438994232787 16.582261043557995 16.788944819138457 16.885027108124916 16.915176674028558 16.94497069845302 16.957660712605655 16.872150281122995 16.61812167930457 16.283430880351094 16.071065918380018 16.04940874157317 16.13773970402048 16.272195339038824 16.484818126385168 16.805604777191746 17.215648581010896 17.727050956323037 18.320300043583554 18.846023294866864 19.089488878155255 18.949098286790527 18.57747078798274 18.254574162003774 18.087539840317145 18.005090939006486 17.891475552374292 16.699850092278556 16.63656021745987 16.629501701943838 16.760043077226342 16.967757878321354 16.975893283090954 16.630922821500086 16.138706445763574 15.824819868043141 15.828888805097726 16.057097019739196 16.431591762529457 17.028740656599208 17.892866033729913 18.774372530446193 19.25256750028703 19.161981086189815 18.685275457298413 18.151460459915977 17.787461593376175 17.65549859978055 17.80068756666349 18.192471135796502 18.66082538616666 19.03499513806304 19.216972613187625 19.082796465585183 18.58449058838824 17.96041695764463 17.578115854266354 17.536524728862087 17.59706304350144 17.494170849953118 17.185541763958017 16.815097580887457 16.53569956243455 16.414847921433918 16.455270289037912 16.61471348087885 16.86024728727226 17.183564073881268 17.555899033930302 17.94745028114822 18.289659884645552 18.420538522334923 18.187569346108766 17.637391907577967 16.9993446142375 16.470906235844748 16.06532094443552 15.76467472393156 15.707668543518247 16.063568155228662 16.78466887789171 17.640403207627028 18.437281631618628 19.05817253374526 19.373188324352963 19.284664460018305 18.81300418251729 18.146267177112836 17.564071659599428 17.25808867310191 17.213228545243926 17.29338552261769 17.364479214262058 17.340990807672625 17.2726604041514 17.35199533127207 17.65636742191234 17.949725684343317 17.910666141450648 17.487149856957032 16.93962294569483 16.541269656745115 16.42026482124686 16.562894180670522 16.825456086060314 17.08597073976138 17.42661545484318 18.052927365542445 18.97884666632494 19.930171505810957 20.57001812427311 20.652115854362652 20.1207518733263 19.225790183101704 18.407488342333583 17.994686854867215 18.01772726749005 18.20197345041536 18.230630340933704 17.99009835523183 17.589305813428837 17.23591842157233 17.121149279854123 17.3055279542538 17.633654244544882 17.892384928621997 18.028292814931394 18.125844589203886 18.215694867360284 18.192693001835426 17.94097950597359 17.547185928760868 17.240038952784797 17.12023298036885 17.08825444179449 17.014208002065192 16.88575523797565 16.79794454982724 16.892777968564296 17.264434833657376 17.778337269767274 18.148238966041472 18.27201746434662 18.255764291483466 18.217518858486212 18.28109086616289 18.576954203804696 19.117121801865174 19.736700055630692 20.189056622573123 20.23890065496352 19.778708344382004 18.98971066303569 18.290315957767703 17.958421521129765 17.932230021258846 18.029914439725644 18.22720646744876 18.596869657870215 19.04854959925632 19.303525811484526 19.107184420765254 18.472440159441604 17.671538756554625 16.964029359266426 16.459645175047626 16.202425629624077 16.1882461880778 16.349211031152894 16.62242898979412 16.911590362144413 17.08056475390338 17.113754125309605 17.15741910318752 17.28495435024828 17.458593087441574 17.6702515873834 17.863171868629117 17.913409023584155 17.85487553961413 17.904106796226834 18.192412115067942 18.631386530361695 18.95897085161356 18.947957954820907 18.60942541685008 18.13243236223574 17.680630312032342 17.274455090749484 16.875006330502952 16.524437884606954 16.34494121595996 16.39241320865673 16.594468589553767 16.884252072143756 17.21355927170412 17.455707184565828 17.43627497297846 17.123322664585146 16.767864441765518 16.65118857814636 16.718287294762266 16.733588852563344 16.66324092846095 16.646974300299362 16.755908353724163 16.909083983807434 16.966997312418588 16.844435321117036 16.636282582713648 16.54234423620531 16.62196590908388 16.780126347781653 16.91846268811627 17.041092187483095 17.206281638289266 17.470872613495658 17.900642035831854 18.44828705433669 18.872727434456376 18.892898519806796 18.44057455604589 17.761742605365935 17.21253497606486 16.924276239382596 16.80930493703786 16.755344122135757 15.751054860711026 15.975504289167839 16.382132908360816 16.95871569509833 17.55979893796387 17.85485445082381 17.65588852575572 17.14886560727965 16.6976201593978 16.54035047272529 16.649205454203354 16.919178325183484 17.381234104150995 18.12444865190265 19.0042972766826 19.615574826740758 19.662657749934755 19.17403554170525 18.457307534404812 17.88162950317173 17.683323875848334 17.941261964633007 18.497013293543016 19.042369972085908 19.385882743023533 19.503962983438726 19.351557444097537 18.886593275198663 18.267295316868697 17.778530940911434 17.537772381788187 17.418714321257752 17.259486480792283 17.021029035801707 16.758779829236733 16.53999624609174 16.417891514295846 16.40381920434304 16.44903188801299 16.50960271354781 16.59654740944377 16.76282552503606 17.08105620913287 17.5053949257971 17.810165780138874 17.79715616973724 17.52676432558209 17.229055849007864 17.03015917053214 16.83252755149862 16.5701258835512 16.432539581627914 16.671494520004718 17.288085786892875 18.062430641851563 18.77370253338895 19.264596239387338 19.42906680834717 19.25765368387307 18.817338253293727 18.244309704719083 17.75948002862312 17.565835107328933 17.65609778488214 17.834081219633596 17.893135476443682 17.729948574703947 17.457469345821814 17.385434062962595 17.668503619117185 18.045127085542823 18.102881014914395 17.715359019362545 17.101974764554296 16.55561010642587 16.297603402239552 16.374503383037574 16.622287160356993 16.887811878942664 17.2460355711704 17.8895271823471 18.81488432225453 19.756895273932496 20.391621538917164 20.458983744552143 19.877568892774526 18.89548240589958 17.974309539464283 17.469295826865647 17.43388703472135 17.61752364549885 17.74407695649836 17.739463477655583 17.68277443062167 17.66984216261907 17.76974945081433 17.994923102209288 18.258331506209988 18.448339431239464 18.52549355480961 18.522540569052836 18.43508964578935 18.19722970801892 17.78372954515666 17.32720230367797 17.024143262381525 16.92449822390954 16.89504308369187 16.819501969329544 16.757963218666422 16.837766517382704 17.132451345630283 17.649865681833422 18.218056911416372 18.566099590622272 18.636961514048675 18.577156673219694 18.521162356674044 18.577061936299433 18.85003987766524 19.350496629523924 19.91428763409258 20.25672692368587 20.114528297668354 19.463970537883597 18.621126507513477 18.051560192276117 17.951273313130265 18.12251911158436 18.304819142065316 18.4783938515711 18.740454472119588 19.03145316131481 19.147305035588985 18.925413537763593 18.38534781684217 17.715701680780676 17.095767549831294 16.61515622793878 16.352607053641066 16.369980554558033 16.641726413312522 17.07989731862696 17.50919784266057 17.72283046844344 17.710683623641362 17.693156974206932 17.80581048498739 17.967288387571646 18.066328278597044 18.032598256165176 17.84968025710261 17.661152023547857 17.69630373030979 18.030474761635112 18.5419160742354 19.00163167594275 19.214498044317782 19.145702183483635 18.889458453872724 18.546246463014032 18.133126530155966 17.63713352869953 17.122277388545516 16.75210953073975 16.636219713779596 16.722716552640094 16.937003854713414 17.238674940819195 17.524036516153465 17.615861572931223 17.450095591157204 17.226098198243108 17.169207897074045 17.19054186202953 17.056616004395263 16.78741198590521 16.610300641240297 16.660419876833107 16.873136395968704 17.070693692640905 17.113918749568484 17.056564023759048 17.066053763794418 17.206079346287442 17.405372395847905 17.54729044058348 17.59090821060524 17.61257628596303 17.752461803240543 18.116519387163656 18.602983507958673 18.88865957162981 18.671443327213463 17.943864949637494 17.023387540348683 16.299430799926284 15.906638489381312 15.738144110361183 15.685446342091057 15.177427392922754 15.527724176416728 16.200343212282156 17.1142248271381 18.02429238200286 18.548989222964273 18.486235154503674 17.99933770665047 17.45969319106803 17.170862283171115 17.160338733097813 17.303151070237277 17.590615778216854 18.153149657315097 18.955374050169123 19.642097531857296 19.82942574870003 19.397974769230864 18.588686128132846 17.84765523492804 17.549219841500165 17.819334964147778 18.439361830760994 19.03067952821189 19.392900393632306 19.54569488857762 19.485899495439234 19.14554066466242 18.577722785500292 17.983529438639486 17.523943568865143 17.204898337372725 16.958498742038117 16.734403048635194 16.51897676263842 16.33594650515819 16.23816293598984 16.217443707329238 16.18525105812956 16.079609540890612 15.942294796008444 15.92093122883559 16.184375645534576 16.696313084816726 17.1800869701437 17.41227781123081 17.4506123519868 17.492936781071545 17.58819459891656 17.554826300301354 17.302499482726184 17.066280883322676 17.158466960468353 17.612552117497902 18.207337564855184 18.694718121510917 18.909741078812043 18.830925174417843 18.580341918919046 18.281814998430043 17.987940206019836 17.781999701329347 17.805685025887264 18.056087331649916 18.331337385040797 18.401600491960295 18.147542299016184 17.703383739757317 17.444057269215534 17.609548253658403 17.992209120068765 18.16586566054971 17.943103054518268 17.452923203478296 16.923543901288454 16.592508950536278 16.559140021267016 16.692473205175812 16.84898887602963 17.095568925580835 17.619384751490994 18.438426988350106 19.32613751623149 19.972699834039272 20.092895212408944 19.56248112212243 18.594297697525523 17.6470047720278 17.11223603066369 17.086510696718644 17.35173549152294 17.64729224154192 17.8848921072834 18.086503974167726 18.264729825312635 18.41458191109194 18.529536820017345 18.60676449857697 18.663217497396623 18.69717699211367 18.683175779501262 18.55358889685501 18.249330814116576 17.810147891578755 17.400705825864833 17.179883000803727 17.145103570566317 17.115985205177893 16.96731246642455 16.833821690818006 16.920449546164633 17.281740126180242 17.854625108257594 18.42358558550508 18.735919528900602 18.77672681946009 18.700925589192586 18.618485946187075 18.599589657057738 18.73846687819652 19.090457913085878 19.535037513583177 19.766430670500203 19.49300392126108 18.760899287239678 17.992449717494885 17.657827113083354 17.837543884386502 18.200924265551013 18.43290786258017 18.5427042175875 18.67031985489795 18.795270821276244 18.7957628337427 18.601616594197115 18.209381332718667 17.681092491860625 17.114060076051935 16.615040327382108 16.323347954843452 16.359109288418765 16.725228775195625 17.31170327277515 17.877257793773342 18.154270669330696 18.126293541288362 18.067979268761142 18.18074613776197 18.36908551020181 18.430496199350614 18.25709903438308 17.9005566667992 17.577661744640054 17.50817260410056 17.72273380535933 18.11636045321886 18.550021152928167 18.899821721611875 19.100937380956914 19.145444979938432 19.04331853634192 18.78136972816783 18.35186122435692 17.828184155443513 17.41085063080196 17.259046945003163 17.32387299200805 17.48354748627906 17.676126902117755 17.844401168674704 17.88649962082577 17.77916748169637 17.681807330315802 17.731375462920045 17.783283775776408 17.590598293458243 17.17234432410047 16.78913872826488 16.657743096482047 16.80079704475285 17.053671546970907 17.22753406674299 17.316730061356452 17.439356898064176 17.65859892067673 17.928368102335817 18.115384186169898 18.127950420311798 18.045289383315787 18.068624724585597 18.326584613086883 18.683172984364308 18.799859351151714 18.41455784673144 17.56985939878254 16.5822278291028 15.811884394879636 15.388548665900611 15.19388364941771 15.105775862695051 15.214127260261408 15.494147635109458 16.18527163966984 17.19329920416893 18.210848981382117 18.83388323464394 18.859706732507508 18.411935282233486 17.82657123758619 17.439365675478616 17.338063864458793 17.39127446939184 17.5324562272104 17.88814902877938 18.51385954986096 19.15706393176234 19.432727494909784 19.11554399341479 18.33448196191854 17.516157455828708 17.109977981272515 17.306951227246113 17.915283042407438 18.557634532055587 19.013905211470142 19.28717258188314 19.378946759222927 19.203616884612977 18.733986266574806 18.0934513771675 17.474753781374403 17.004307869023357 16.69021339765367 16.455397277175415 16.23815748097682 16.066413735466007 16.006639625618885 16.0103670488513 15.936870878747463 15.716668295838039 15.429765074511403 15.296258822607362 15.536589449679038 16.107244049056714 16.717577133870797 17.151283975074257 17.439528134845997 17.722786294433885 18.008828898307176 18.098304233069683 17.89646673046633 17.643265098370073 17.65211268773894 17.938930507863656 18.259547579854818 18.375603905305194 18.198802174660283 17.851714093037785 17.580400121772 17.533269054737705 17.651367275537048 17.83195163084161 18.092356722990424 18.42175865299388 18.682235529089258 18.71105357130823 18.408734859163197 17.891315034418355 17.52199271441517 17.586854281198118 17.961168483429525 18.2540385625465 18.233390621972834 17.926099311404542 17.47075366024096 17.087925437833622 16.932761733372857 16.93958522385728 16.97529905117191 17.06680587078131 17.39159207005211 18.02500564077647 18.810389314096355 19.461794798637285 19.6669438325206 19.24680205578615 18.355374884626695 17.4386803237155 16.937852235781367 16.998433791655188 17.414839064806785 17.890336195898566 18.270840753452575 18.530601851265786 18.679398176483073 18.723645276676894 18.66129339164365 18.53197515947275 18.439244920978833 18.428778934461693 18.454262359434797 18.40094382449317 18.17983378284838 17.82886796438241 17.510735757291485 17.372531664454385 17.405619233021472 17.405019576332663 17.223557261100016 17.030156919170913 17.07827090693552 17.415090180827036 17.948796430749415 18.4683590213352 18.757472511651137 18.806124858344237 18.718151920663125 18.55284794573401 18.361255222027914 18.270335977859542 18.418889375719434 18.747603461967625 18.938191362284577 18.6690138660318 18.012935047929346 17.43007986109495 17.34604072474848 17.732679168590085 18.183679325696694 18.38509650290514 18.39623022096687 18.399116810932277 18.397981846362516 18.326609454112713 18.176201941206866 17.906845624238883 17.469058231781304 16.916616311017556 16.39695461802846 16.091123616529075 16.141889163187763 16.568287950891126 17.258284196389443 17.933801424180857 18.276751182903375 18.245431876929665 18.145868663547983 18.240587227782484 18.45028972326351 18.526103894338576 18.327829096620793 17.922495299923206 17.5363873457633 17.359625547873975 17.400548297444832 17.596174568054213 17.90473118466258 18.280145008956556 18.64922003858164 18.927663002663472 19.044608721716056 18.9625826233348 18.688316365021517 18.30026348260871 18.01114238933483 17.995529206253945 18.167934866336495 18.312979488932896 18.32679612070219 18.233405232394126 18.079220260917584 17.941214375094596 17.94825100442359 18.125134910939753 18.26024413548171 18.099289696653557 17.633913353911108 17.10045712840128 16.761760152907957 16.738048968632157 16.92780448031038 17.14512214106433 17.346115491341866 17.59011479230316 17.91076133463064 18.25890268414108 18.49267424411865 18.50429762629012 18.37786701644994 18.32531928966341 18.454531806552964 18.622527531071505 18.560534091233492 18.114086272109084 17.358425366943635 16.52713024191441 15.881538140036815 15.532833487594104 15.365249064821455 15.235201501328124 15.774913150402874 15.8571110852036 16.35888356195229 17.217263544220714 18.124649434956627 18.702430503155142 18.75893505065957 18.361695986592814 17.77826325796414 17.347868362493454 17.220076795256976 17.264262489496407 17.32682352415501 17.47373511491956 17.82121224392171 18.260109087052076 18.497947260890914 18.27666095373913 17.60138912087939 16.793772064623873 16.307450847813204 16.404074334870717 16.976794865818874 17.68791807870685 18.278181436205312 18.68994949741093 18.916026955759623 18.88852511234277 18.55648777016375 17.98397294308729 17.35372519928767 16.85611820783554 16.54186285450138 16.3009590811982 16.04514684973725 15.83661457743368 15.761621699757738 15.739325472660056 15.613626292842426 15.34898106961827 15.061878031982827 14.973434392553779 15.26537807325301 15.86209004340449 16.51118395626373 17.054600331192894 17.495259525746995 17.908074334482095 18.297396476779888 18.49881761890927 18.41343001290056 18.233019516042873 18.22034984197968 18.346658932853646 18.3461026032222 18.0339496660717 17.4654095280021 16.922913080458834 16.72394426179416 16.98390245864283 17.521273151355715 18.05636790520348 18.46586815282406 18.719070993110005 18.78999845685705 18.664587182804695 18.318356417344305 17.83826555732919 17.510459351802993 17.59262799632291 18.00624522023335 18.40430517134542 18.534667686326312 18.347470878565055 17.917731937962778 17.46040222311229 17.19192776390487 17.11217705206553 17.08233063370872 17.070091442985806 17.233670229133818 17.69960885535248 18.377318680608482 19.01917061676089 19.31212368912692 19.025493083643493 18.2346885278743 17.36340271242542 16.90493614757992 17.05014467184729 17.591727640117877 18.179400390361316 18.58559712041284 18.752493934466973 18.730519482281828 18.590623071560035 18.3564477898476 18.06785275871502 17.848146877000595 17.77657889646423 17.830264136867545 17.897039839982366 17.848406310312278 17.650073574661423 17.41287873533802 17.301303135617605 17.36713663126976 17.428340738922913 17.314399918846348 17.170179942183882 17.229642389997146 17.516224464432447 17.951533678222418 18.39016016622954 18.66774121523505 18.732276993407794 18.595218688802284 18.28238938761531 17.87771921889911 17.573389830279606 17.578315231705695 17.86824270436034 18.114526965412075 17.97388188936309 17.501738862597648 17.12775264568994 17.210711167730853 17.66458698287973 18.086410936494637 18.205191030501137 18.120252990690535 18.03539111916165 17.961336995332296 17.850099300383544 17.71391606531408 17.491943996259952 17.088941202232025 16.560170941955754 16.078097506591966 15.815984559995803 15.90331706716441 16.36701276139539 17.103177952558116 17.82174164369627 18.177505880937208 18.10688608951364 17.937414230237707 17.98450640543885 18.200208162967343 18.324230946021984 18.196417636600255 17.8624248053272 17.510234293441606 17.29121485539552 17.207217633398404 17.23032589712558 17.386946024085812 17.690820190337302 18.07836742857258 18.435875144381896 18.657309451497294 18.7052542921183 18.601516707188768 18.409592441452737 18.32736249323489 18.52492134660269 18.865757414846357 19.023449289757597 18.838816264719114 18.423810940106726 17.998341397852272 17.76937798347468 17.849001312258252 18.142698720827447 18.366321372201313 18.275598581229964 17.8511696103419 17.284061027883762 16.828085590580535 16.654421063424934 16.739350131910356 16.95164166407884 17.235556173118347 17.58368755712923 17.97549442723193 18.346886751127574 18.581075502940344 18.609616904812622 18.522195941397328 18.47020523610814 18.481034094571985 18.423264963622568 18.16965244584484 17.731026157832463 17.21286302388442 16.715754729500414 16.346974450916633 16.170989801760467 16.08331671083514 15.929465245574061 16.612675925283487 16.488509685959034 16.7267525389