# vtk DataFile Version 2.0
Really cool data
ASCII
DATASET STRUCTURED_POINTS
DIMENSIONS 200 200 1
ORIGIN 0 0 0
SPACING 1 1 1
POINT_DATA 40000
SCALARS temperature double 1
LOOKUP_TABLE default
18.455123853624706 18.134134300483232 17.77733379529657 17.399306965763433 17.005793518583165 16.60592157247363 16.229621040626753 15.930449282601337 15.76653698059968 15.773680433316361 15.950442398082847 16.260259362722806 16.640521668291196 17.011560965826124 17.290667012538847 17.416173005303452 17.37215839382909 17.195748257571164 16.95993928710878 16.74382344113266 16.60842855601914 16.58604545043097 16.67865568629437 16.859808445935883 17.08052457306337 17.28278848771063 17.419881693815974 17.47484205229597 17.464152984666075 17.420931303860083 17.36841327452019 17.304708314633018 17.210529830791376 17.071295871918537 16.89490025759964 16.714410821657665 16.578123769561298 16.53409832158904 16.613828045136867 16.818633743876145 17.114214622421088 17.437906975388373 17.71682890349552 17.888705616442184 17.917333031467262 17.799375042019552 17.5621252300477 17.253274311457627 16.92744062293467 16.63654838327671 16.42590383896027 16.3300243511841 16.363200991692047 16.509498326847112 16.722902382499647 16.94222257903037 17.1134291521333 17.2068518083785 17.22181683218317 17.179750873743398 17.111456624464836 17.04497197317556 16.999296805139025 16.985684537118168 17.012304576655577 17.08502207049988 17.20156305089955 17.344782819928472 17.483835928275596 17.585808469330967 17.631052305203927 17.622135527744334 17.5810316867009 17.537003342719597 17.513313174734083 17.521274668110646 17.56423977008742 17.645798527250182 17.773201400753383 17.95200759366332 18.176487132109365 18.4246818406261 18.66357497573764 18.861735047646953 19.001373299966353 19.08295721542958 19.120309826174125 19.12857483922001 19.11128287623698 19.054922964410903 18.936179308361574 18.738530576439654 18.468117263658893 18.159273319136954 17.86605099889449 17.6433448083944 17.52751815349185 17.527486449085664 17.6291859369805 17.805590550492017 18.023304524388802 18.245816829680304 18.439328983176395 18.58143406482667 18.66441226746778 18.687288526286938 18.64389295370289 18.52168099522756 18.31603413548224 18.046737387472632 17.75815709285868 17.49944667055175 17.30069850620349 17.16502703458885 17.081481026449016 17.04530994834125 17.068130826250915 17.1719587479529 17.373842753192832 17.671112468340322 18.033267220284394 18.403013495447876 18.708262420621455 18.884847748118048 18.90270882297946 18.780829929385202 18.578941084790795 18.369429554212722 18.207567359166017 18.116850541117262 18.0913313317397 18.105105573613095 18.121169128082133 18.100361520242014 18.012844450351555 17.848772072468147 17.621758598479467 17.363219329963357 17.11130165069309 16.899016197694962 16.74496985045569 16.650298265554024 16.604387435330104 16.59736887651075 16.632267313442107 16.728420235495133 16.91201341856067 17.19743596291149 17.56986222379102 17.980400206953224 18.3590799932596 18.640048933467995 18.7839628018106 18.78396579065691 18.655300300059984 18.421641667779692 18.11034240860599 17.756371786861514 17.40480688191699 17.103677375119407 16.88956880314464 16.7765995927043 16.75714583514175 16.81229917953661 16.922046621367723 17.067550543387902 17.227286369251175 17.374881158730314 17.484254229918825 17.540600450811006 17.549595297620534 17.536179606573512 17.53044994889737 17.548426012581647 17.581145962858177 17.60003541082864 17.57381071127062 17.48415762477001 17.330863072909175 17.127170201743773 16.89309995099718 16.652946170462716 16.436013249355042 16.27517991553444 16.20097949113257 16.234866634457084 16.386099440944818 16.65195234471085 17.017656915323233 17.45447848701751 17.91873843857545 18.356608750592912 18.716852921283625 18.967196158289127 19.10424035265722 19.1483775035451 19.125694128673643 19.050008228735326 18.918240499330654 18.720589802519367 17.985631849245586 17.718517388092245 17.43781101966252 17.15023533367831 16.852512507043148 16.54421918866831 16.24636859935781 16.00619997241713 15.880130111088958 15.90756063801113 16.094596791156604 16.413195954197118 16.807226121694157 17.199760760209358 17.507224453960088 17.664974358427965 17.65384764311987 17.508731620451123 17.301769104760318 17.112139714683657 17.00071798621395 16.99787191385946 17.101083436389708 17.277812816708263 17.474074887019086 17.630854487603408 17.70590142051847 17.69115117135892 17.61300940132022 17.51145279074401 17.411421745147795 17.3090482294084 17.183170747176217 17.020318797332187 16.832036925025577 16.65412256064159 16.53303515994259 16.509815053892773 16.607166925445178 16.820986088968333 17.117769541380287 17.440072194645442 17.719598162531643 17.893850262641593 17.921533588480887 17.793105432551595 17.533109963249746 17.19249650171658 16.834642530019178 16.522748637167325 16.311907716062073 16.241558306778394 16.324573285064318 16.5380470168845 16.825653985373343 17.1147480306762 17.340262983222576 17.463534796451984 17.47925544758578 17.410735008333578 17.2973520394076 17.179577970305743 17.087732868013262 17.038641350050987 17.038791008068397 17.0880718823108 17.179667521316652 17.29740745564141 17.415643572186088 17.50526611847878 17.54467740833161 17.53003336306477 17.477906363694125 17.417586675719093 17.377838456496125 17.377621463884367 17.426606789970077 17.532179437110486 17.703740196174945 17.947710599351044 18.25551267362533 18.594683229350643 18.91297430456001 19.156123622327268 19.289780572599234 19.313044371589214 19.255710978004892 19.15983458234526 19.05535445249296 18.944556121312072 18.805631483053027 18.612918408814977 18.36024692993616 18.07269476173337 17.800079324384903 17.596408263634352 17.497723625940207 17.511267113299446 17.619534807128677 17.79118272197337 17.98919528535207 18.17564797804001 18.318457544191414 18.400262799793946 18.421260261634167 18.39019450626444 18.31074842396719 18.17821623329783 17.991780723971445 17.770142231006332 17.552625058058357 17.381290603251028 17.278365588304602 17.23841354994718 17.241309089956218 17.273825105334765 17.342115994389363 17.467437065077867 17.670278591086387 17.95284740968544 18.287888601756865 18.618992112860752 18.874897986429996 18.995323566375077 18.9579881320998 18.79119236874964 18.56186486614217 18.345323834124258 18.1959493978815 18.133995274047805 18.148065812953956 18.203319741445327 18.250248269955286 18.237032770364877 18.126878204773803 17.91315237053928 17.62259926743341 17.304528667977507 17.012693906981365 16.788321463936906 16.64971481008135 16.591220185163234 16.59187074704512 16.630171035008207 16.697913383142634 16.805214092142226 16.972744128835767 17.21458718495718 17.52170208139675 17.856704344731146 18.164785892652983 18.39548646104128 18.521359494989067 18.540955789646375 18.466804540534973 18.311975295563496 18.08777734995577 17.81197825498816 17.515828192986476 17.23993110984889 17.02076340387858 16.878886128525473 16.817532923850585 16.829615354364588 16.9039857335223 17.025149852539478 17.169484424112795 17.305344862970752 17.401089414014088 17.438366071153137 17.42263056637637 17.381942282507968 17.35128893124268 17.350982915233715 17.374483870471273 17.394567642359956 17.38157834626289 17.31875729332754 17.205379923484973 17.050853166997904 16.869200081848135 16.6790459637702 16.505715307496708 16.37916535149492 16.32698983297792 16.367944060198752 16.510307518809228 16.753203348232717 17.08605324720355 17.484693091715595 17.908049321170346 18.301572218995506 18.61060835478822 18.799358892893125 18.864033812182065 18.829779372077915 18.732108482789855 18.59617179070699 18.428635902819906 18.225422806852606 17.485152095819775 17.31139733162528 17.1493000468064 16.992514691780865 16.823348475650306 16.627646265435413 16.415564705950025 16.228683946255437 16.124570236607592 16.150259765703584 16.323416044563288 16.62787989742589 17.016712846144863 17.417694554170367 17.746727366213644 17.93395770155867 17.952733174497602 17.832017484141105 17.64275019269416 17.467614455339206 17.372036106440625 17.387228059986732 17.505743011097085 17.686654521948057 17.868931620767256 17.99154950584445 18.015747342474352 17.940174882837475 17.798159907753757 17.634920046492205 17.47889997949317 17.329051212673708 17.167091585350853 16.982073441057363 16.786318022859504 16.613068085076158 16.502178398347166 16.4853945036518 16.577271581640566 16.771328631581014 17.03959654861975 17.33551048425114 17.601041914579923 17.778164821413622 17.823278815460235 17.72074569441484 17.48918011513358 17.176150836378813 16.844594561071396 16.55943885000272 16.378424692293034 16.343081700143287 16.466471666886044 16.72343023131361 17.053431335632087 17.378690570799023 17.629029085711025 17.761783146939518 17.770205250250672 17.679986523676728 17.536666677324593 17.388554884809015 17.271758230455134 17.20348615089347 17.184957836780413 17.209191690832775 17.266948924487473 17.347188003733546 17.43363653348299 17.503204520023473 17.531702838504383 17.506030533228053 17.434186632024225 17.344040870468305 17.271032495189406 17.244619227543165 17.283205391346492 17.39822929762929 17.599208914608727 17.890576312835393 18.25936830278231 18.6638576416158 19.03638664575456 19.304471558139422 19.420405165954826 19.38253938512794 19.23507094644277 19.04466074996044 18.866181488745788 18.717916474534945 18.581177010211185 18.42284647378015 18.224371518101595 17.99845748658902 17.78478185463827 17.62969311590648 17.563848058973708 17.591198339393742 17.692717738039303 17.837058854052405 17.988955683649298 18.114457969400473 18.187670045069563 18.198851182645136 18.156210047893765 18.076272053532353 17.970020993083267 17.83888832005904 17.685393889717666 17.52693889235388 17.396418627912418 17.325832458851554 17.326145477765312 17.38135125267142 17.462500139056825 17.55016321364847 17.64789581454491 17.778415831884978 17.96676579198218 18.220329429336438 18.515204555084182 18.796291010913258 18.994229336721826 19.054440951546933 18.964506915067005 18.763063731741994 18.52269863970907 18.317166496646273 18.19386585933662 18.16465244368869 18.210904804115756 18.291661855243213 18.351610858971505 18.334196897173136 18.20125027495562 17.950060525012148 17.61638576255691 17.261032969073092 16.94802021725416 16.72463700220595 16.60985612249639 16.59357332086615 16.64622645522731 16.735084685452765 16.840260349888435 16.96218830617076 17.115671125209378 17.313761794282335 17.552058670310714 17.804071350954068 18.031224870768284 18.201245789168055 18.30180649000602 18.3390568415563 18.323555606425217 18.25758486860188 18.135702141403353 17.956880412445066 17.735551945129778 17.500839627897275 17.285287905594778 17.113699243119925 17.000245627156943 16.951877246258203 16.97007145662642 17.047170298957635 17.16175076468948 17.280041477318473 17.365913211044447 17.3957700796541 17.370359690160306 17.31474324417603 17.263303131341935 17.238094201385866 17.23644023177778 17.237040917170063 17.217454653068984 17.167057388495266 17.08720385246243 16.984098930276488 16.86488478227723 16.74054060385322 16.62975223681347 16.55666777222394 16.543122443942366 16.60246375822238 16.739517047855898 16.953571478758697 17.23806600977155 17.57491511343705 17.928240875485127 18.24563666471892 18.47179924840883 18.570149656308566 18.539239864289826 18.411326699475644 18.232846674006097 18.040824420832813 17.85163041881667 17.666623387802638 17.018244962531025 16.958202394903886 16.93728557770498 16.933212712251027 16.91001469300781 16.836413898403237 16.710006898441677 16.567121612447465 16.46852047593797 16.4714743174423 16.607337611872484 16.873303635560184 17.23308129528646 17.62107440684788 17.95435725326015 18.15790670906181 18.19548485955957 18.087380637014725 17.902295242917365 17.728166330188355 17.6383172249625 17.667535177812272 17.804321451538993 17.998807397559954 18.181932572696564 18.289451167663806 18.283874998351685 18.166823799680117 17.97434445874257 17.754668107926395 17.5412732827889 17.340405836884575 17.140965628250413 16.935672954697587 16.735039595789004 16.565396584747244 16.456583677502675 16.430230874227885 16.494558540386837 16.644261566061477 16.86122622507176 17.114215824788364 17.35961345397978 17.547222195774314 17.633026613722432 17.594872580621605 17.44196970326336 17.211845947151264 16.95816032209335 16.738693575174562 16.607368261137843 16.605313897160936 16.747342158635877 17.01062879194313 17.336935262302777 17.6510230407824 17.88591355132165 18.00260652532791 17.997733021285775 17.89930936544762 17.753811816372604 17.608944109175013 17.49806256473365 17.43278766449808 17.406877079329828 17.407775659057695 17.427282780707934 17.463464458961045 17.51267103147538 17.55974340887636 17.578238411793098 17.544487182009615 17.455337593274873 17.33448382885925 17.22239038523586 17.158966791667808 17.17223846605773 17.278318610129475 17.486530427410013 17.79860289934882 18.197583142112165 18.635355959703773 19.034126552547004 19.3089496206807 19.40234881931013 19.31167070082328 19.09178639290081 18.828880038145744 18.598827980508208 18.43463218719224 18.321851144205105 18.221701198790914 18.103528670887464 17.965275668650424 17.83208408456386 17.738362041141606 17.707398601345435 17.741046526313195 17.822311804159494 17.92409803874796 18.016547912990234 18.072322408796683 18.073321028901308 18.017825151590024 17.920955838959177 17.80455189688387 17.683918125383293 17.56430174379188 17.450550828638004 17.35867771401683 17.31493144618796 17.340318062414205 17.43346655187264 17.5677584647312 17.706981989301507 17.828085528515185 17.934423021779942 18.051533015594085 18.209335943599715 18.420372780975356 18.664443456847724 18.888691103902495 19.026924651557927 19.03146232606629 18.900311309110293 18.681576720991213 18.450534323787718 18.274508791344484 18.188535475236492 18.192247279621988 18.259425225178557 18.34693653942446 18.40107426154828 18.36869405143456 18.215549640568483 17.94285209728682 17.590390977552467 17.2233950766795 16.910491176810083 16.702781050114282 16.620704014790192 16.65169563345399 16.759087600591158 16.89951524737888 17.041869162920342 17.1779326995965 17.317961668083175 17.474494644276923 17.64671614332911 17.81687713673705 17.960709230284692 18.063390769460522 18.128179650909516 18.170133688652292 18.200004471578847 18.212452093026254 18.188841212506443 18.111741256872502 17.978539260594175 17.80393856184941 17.61222475872175 17.42840026507537 17.274886063842512 17.171657539609917 17.133346539722613 17.161809412959915 17.24016677396874 17.3351635722379 17.408797123963385 17.434135717367518 17.407351918330107 17.348138085900164 17.285933249627373 17.24005928159259 17.20907973040507 17.177743535553226 17.13330295808115 17.07511320079944 17.010821683716372 16.947040896560274 16.886058116186387 16.831040632891956 16.79192535265063 16.784016339597688 16.820493617988724 16.907009757136343 17.043234480589515 17.227480883301116 17.45675423970081 17.719382990238174 17.985825724530297 18.20784922861027 18.332425794072886 18.325516517469744 18.190644046253283 17.968060519669944 17.714078510910415 17.475529077156846 17.276802259299565 17.12429555579543 16.656911608310377 16.70416050287956 16.81660593482945 16.957336674358793 17.072146551118948 17.112072561575765 17.061648463500028 16.951747660521082 16.846249544182257 16.8123150941806 16.89415426250948 17.101372179969744 17.40828473535119 17.757599660565138 18.07058421994954 18.269790956627077 18.31026364088449 18.202408867962156 18.01074156700319 17.827444521425992 17.73443995472393 17.772110472225858 17.92729361360347 18.143039618912468 18.342933224281406 18.458485952545878 18.45049098765807 18.318982860141947 18.098073102489305 17.836293478137986 17.572578241761022 17.32324874245135 17.08727681805645 16.862105930260853 16.65540846589863 16.484794191861333 16.36914236570911 16.320744835949846 16.343727713468024 16.436702377819774 16.593740355316186 16.800569401416816 17.02925786442677 17.238714054999544 17.385553157508575 17.441008604441294 17.402661458820326 17.293383576261235 17.15133561839959 17.02083241283823 16.947107606118042 16.968495269651587 17.101985441737927 17.33025201172792 17.603047540386044 17.855681313229617 18.033812150420097 18.1108490925877 18.091764125300955 18.005635479151152 17.892437778409292 17.788627194115197 17.71532395715785 17.67357715639427 17.64992439203105 17.62989342336338 17.610583837719755 17.60210663084597 17.61492937960491 17.64286626576385 17.658298835406324 17.627307301918083 17.533970623086148 17.394208457296553 17.24936557071018 17.14692152170127 17.123743701891105 17.20145760390986 17.390622893620204 17.691880666416324 18.086730197511784 18.524859811460757 18.924153576549763 19.19289396218007 19.266867940639283 19.141159059048768 18.87622262781157 18.571165657340504 18.317487834073905 18.16030625880131 18.08931920327517 18.060869757087584 18.032257897882847 17.985466052996927 17.929557191031854 17.886661746422025 17.874607518462614 17.89709457452403 17.943814559569894 17.995634582484644 18.029846402477144 18.025448800485 17.97043515579523 17.868592209606664 17.738985313164484 17.60559520547911 17.485049432885678 17.384156964790147 17.30910608457274 17.27486316726086 17.302213852442055 17.402620377631468 17.56396301399284 17.750922896157558 17.922167046303485 18.05281582334982 18.14689695731344 18.232722906294907 18.344763411662335 18.500947075413034 18.685978623183228 18.85105149234063 18.934634119753262 18.896219110698606 18.742823538896968 18.528930730598507 18.32826480624579 18.197309695327114 18.15533588883545 18.188409693563464 18.26414234731715 18.34156532322621 18.374945330956955 18.320852394648487 18.152572208232908 17.874488593809602 17.525823177187522 17.170190311398777 16.876077232207546 16.696367803135924 16.65333053594267 16.733377812695334 16.894132574141263 17.08274446102128 17.258258369791587 17.40577573304454 17.533171766952613 17.65371749744757 17.76943332304297 17.86839510264096 17.936480573398207 17.97231834452769 17.992148042357552 18.019666568460305 18.06850301665599 18.13120275421701 18.18287550239483 18.19569342408094 18.152987516991093 18.054380351143948 17.912454591929592 17.747650274310875 17.5857903352901 17.455729866616522 17.382227940056723 17.374870193886878 17.420841083826474 17.48853610688561 17.54118668914838 17.553193771277773 17.52068083086964 17.46010965146057 17.394555406942672 17.336449084783474 17.280807909096726 17.214957667335373 17.134716899130005 17.050890482842476 16.981086542138126 16.93699005289742 16.919924057015333 16.9269292901168 16.95848113109291 17.01896760434959 17.1108107208955 17.23048408311432 17.37144992786638 17.529967304994162 17.705387250979708 17.891568574036313 18.06567718999757 18.18601661199368 18.20587442467936 18.097754202547762 17.871855523935498 17.57459158148977 17.267462972470675 17.001694096333974 16.805790052798294 16.690017071696637 16.46572830323378 16.5897173670204 16.797735426507234 17.043806669905514 17.26030566336938 17.38404000412172 17.388157863266787 17.297753601500023 17.177655764101075 17.101470263239925 17.122346349130293 17.258888039252774 17.494258973415377 17.780365930693 18.046294467636635 18.217116573655122 18.24299919961982 18.12525142499007 17.921828287473133 17.725522277799456 17.624582589718706 17.665678822074465 17.837237891371476 18.079068400297697 18.30967657296636 18.455951776795963 18.474163161438433 18.35860219585972 18.13729043386719 17.85609564882252 17.558192977802005 17.27021230414936 17.002062224380964 16.756777156278822 16.540009917841047 16.36176924734339 16.231723529183814 16.155167925948003 16.134469518218992 16.17347044109935 16.277949560596287 16.44858743261809 16.67094281367452 16.912105373219035 17.129998515151712 17.290487652620808 17.379916624271893 17.40535803871659 17.3870498993323 17.35275233132313 17.335814865647123 17.369087158983653 17.470434026178037 17.629115326996907 17.807053618825535 17.957259117273967 18.046761643528825 18.06897720701082 18.040531846581214 17.988702820852655 17.93870533130521 17.905549148437544 17.890441233633574 17.8817252284172 17.862008866718078 17.820625083359516 17.764412840407687 17.716779606305607 17.7012862162243 17.719811034845918 17.744144074233574 17.73127498599525 17.652140614384017 17.51187172251041 17.348006244312753 17.21143241973769 17.145948115227167 17.179256441063686 17.32528102444715 17.58639453465805 17.946012610558164 18.356139127337798 18.735703281526792 18.991059216059806 19.053553782380433 18.914404520641504 18.63453427719764 18.319338445340204 18.070120894141255 17.940421779442634 17.922387608913926 17.966884630733897 18.019003065548286 18.04523368201426 18.04036471674125 18.01779276494212 17.994783559873465 17.982132729898545 17.98064277617293 17.981758664494805 17.9701347070153 17.92888903770622 17.848049717564372 17.73207049690383 17.599459273915347 17.472848906842213 17.367777810238962 17.29108081143267 17.249625069632774 17.257797919405387 17.33267799122758 17.479036974229636 17.677449704714835 17.88722365172792 18.064325255250044 18.1830091461377 18.247576323994103 18.28812931565696 18.343135424596145 18.436475565437583 18.559418923767083 18.669164776675913 18.70982843611746 18.647021605381852 18.493469444912716 18.30541142023611 18.150710205808874 18.072443564638164 18.073795855124402 18.128801883693967 18.201670887717093 18.25716364191878 18.261400730768294 18.183948693932827 18.00713425140049 17.737529754427413 17.41062887238823 17.084321497372265 16.82331829497974 16.68006486675977 16.678095736281644 16.803617544631077 17.01027955280109 17.23799152577665 17.43843080270833 17.592521794177863 17.70799728664873 17.80023452521973 17.873709420727714 17.91949830188758 17.928538160299652 17.90684542668613 17.878591431259768 17.874015667861254 17.91161482912924 17.987675971760183 18.079148593254242 18.15572973061921 18.1922952093046 18.17557049883627 18.10523126045552 17.993286086640726 17.863433617844226 17.74731264813573 17.674122777926875 17.6566079701116 17.68311739232917 17.723172619925982 17.743783696122794 17.72614006615797 17.672980951708652 17.602712970901614 17.53368352900056 17.469373673119158 17.39695186109578 17.301628134699563 17.18420638823057 17.0655562466258 16.974555125882873 16.931425396953 16.940593785078104 16.9959479834676 17.08960840855717 17.214745652155155 17.36232133157193 17.519099525311134 17.67171681783829 17.813048708143995 17.942667384611493 18.05807229438519 18.14322485413049 18.16611507920292 18.091626864924898 17.9033239189514 17.618768065795365 17.28628664011382 16.964915832456235 16.702155354122922 16.52462575428685 16.443887428978176 16.480104949500564 16.63849518461811 16.886683853979793 17.177590177445623 17.43859554131058 17.599403636964347 17.626023969019283 17.538243810246655 17.39874624216622 17.282166307983058 17.24451841597265 17.308135721640102 17.461732346700998 17.66610994994096 17.86137990446359 17.980985111469188 17.976104717848013 17.841702599365707 17.627250160373524 17.421037261261556 17.312974801405666 17.354941056008197 17.539872727317377 17.8089678466351 18.07907573799312 18.273217929467094 18.34163283135819 18.270269480342048 18.07816376915708 17.805553592428645 17.49695608031243 17.186925158710274 16.895114340725666 16.630647412514094 16.399321549543966 16.20686258072113 16.057518231573248 15.95313523224515 15.896675596967507 15.89717761916883 15.969012569749015 16.122442499316726 16.35126881282743 16.628139082720907 16.91313914736344 17.169910617878163 17.377030102761278 17.528263168733755 17.627039814747082 17.684195612803283 17.719302717726595 17.7568125328805 17.812877302977302 17.882746139885842 17.942908892194996 17.969116205541976 17.955672571196605 17.920182001067204 17.891186641820223 17.889934792834516 17.919730372486327 17.967214939194875 18.01030865541053 18.026533539192187 18.000621556114627 17.932479431699296 17.842459811852606 17.766521140843842 17.737609676096785 17.76220351340179 17.810486582432638 17.831413113517463 17.78370163066457 17.660617535258474 17.492768855641874 17.330841759544334 17.223268457626908 17.2036594875782 17.2908818339803 17.4915640757785 17.794083818241777 18.156359246934937 18.502412717677924 18.740369163816474 18.799096906287872 18.6650166516802 18.3956763821184 18.097244570691764 17.875322430524403 17.787520549755808 17.82554562961109 17.933303772464132 18.04378130991383 18.110154986601938 18.11734899628316 18.07591589666162 18.00846661783851 17.937521944533835 17.877825146785494 17.832450600558808 17.79265753088176 17.74291491962019 17.67065866188024 17.575514303312996 17.470586272218444 17.374031958856104 17.298849956366087 17.2513265227042 17.238712724422726 17.274987477159343 17.374828814885195 17.539144581434567 17.74514288357318 17.95070453514095 18.11183117703754 18.202814967921693 18.22763314966447 18.217048603782388 18.212783499019896 18.244738883214936 18.311488142675014 18.376997458658845 18.390777572391652 18.32238509255033 18.18622443765451 18.0358885069424 17.930748457131504 17.900890642025193 17.93633988693764 18.00279006996313 18.063983943331053 18.092139935369413 18.066069056866652 17.968664350721674 17.79123398360722 17.541954224025194 17.25120610851906 16.968776197262212 16.752458703831138 16.651212340630433 16.688073082515867 16.849435279823098 17.08751702011233 17.338753142567665 17.551151172019125 17.70421474627869 17.80724732227467 17.878610336531317 17.925000820130226 17.93829493391932 17.909797386576358 17.846508022790186 17.77447279098014 17.727057183317246 17.728177081029955 17.78223576754464 17.874924224928506 17.981139572511186 18.07408485795401 18.13213536213851 18.143467877514126 18.109656672118106 18.04740366742856 17.98464765860652 17.948445091368157 17.949246236187015 17.973003949243534 17.989168429733127 17.97001136978875 17.907534389459666 17.81661451429818 17.72282106316664 17.64302992536395 17.572411754086374 17.488648518018692 17.371669866216603 17.22345161932226 17.07158463820051 16.954531838470416 16.901641861497957 16.92287367674895 17.01204191435797 17.155530017767976 17.337031342129112 17.537100103105985 17.73333527003972 17.905281557746644 18.040830692781714 18.136993740860223 18.19240562048068 18.197742861574817 18.134112128891402 17.983566971245153 17.74510933640942 17.443741672168443 17.12469800931093 16.836238592982372 16.61337687200866 16.47390185829887 16.426671516563847 16.690400557376112 16.845451833919643 17.07976475339471 17.35256986260834 17.59560568123282 17.740484405561194 17.752383722528215 17.647775570314653 17.4847118013206 17.333251486011733 17.245656371239697 17.24214594122099 17.312992898651245 17.426533336709795 17.53586395629945 17.587893631878927 17.541021512325287 17.387797198839316 17.168339187206623 16.96129562101096 16.85231462004424 16.895613685512426 17.09017955079962 17.382837769411452 17.692863841692073 17.941666823992538 18.073984235742394 18.066940648509238 17.92919205754806 17.692592527150836 17.398936065998587 17.086514794788823 16.782180920259794 16.501347299097507 16.2526956343839 16.041852183623412 15.872108828653666 15.745647596541682 15.668015704322569 15.652347429292696 15.716823658445836 15.874044329714291 16.119314677085242 16.427631442606053 16.762671804370772 17.090641898321202 17.388142801256656 17.640579427485036 17.83779966175057 17.97487594941569 18.05666412406861 18.096784728229295 18.107114208664687 18.087638411386397 18.030029534923997 17.934539254786454 17.824076465889544 17.739836093529373 17.71927559812857 17.773134909600966 17.87875478003661 17.99279102368611 18.071948806287633 18.088530464976945 18.03666788917508 17.93280258619659 17.812813961089653 17.72258485717402 17.698957184985915 17.74781584766992 17.835319085281075 17.9030197252558 17.8993829062098 17.806929794451158 17.648524138447765 17.472379842584246 17.32925624928233 17.25755850128391 17.281471761208252 17.413228459888035 17.64789025839486 17.951248664157994 18.254805045669688 18.471164665491614 18.528943095894377 18.410322376484984 18.167645242679708 17.903933276823977 17.724191948987425 17.685512447220766 17.77582917707561 17.930631150432315 18.071695459881063 18.142367883988037 18.123296432641254 18.028411200862763 17.890646098653654 17.74684250081181 17.626107312344402 17.542362202621455 17.492069280520703 17.458796681903475 17.423928123481474 17.378027976514435 17.32503132108718 17.276397692955364 17.241947856379873 17.227504670990747 17.240681286407465 17.294918002396294 17.403024181868215 17.563983087473336 17.754948998032937 17.936171669212307 18.066779316342952 18.12271484289598 18.107727139431642 18.052268145115843 17.999782825439347 17.984494147527638 18.010737320169067 18.04795714315684 18.04963080777341 17.987056341280955 17.873408941052958 17.757402030805803 17.69022129525617 17.692411513352038 17.745959728911444 17.812534868690634 17.85729648462208 17.859434765251546 17.808758708387504 17.69985609990122 17.532210468332114 17.315567758822034 17.075003884857214 16.85063634457819 16.690017639522598 16.634644631336876 16.70450323412254 16.88670283800283 17.13572283510628 17.389806743547574 17.597945867421785 17.740806913638554 17.829887819229757 17.886253280506754 17.91821531535273 17.91692653392781 17.870689698288892 17.78239025127073 17.674649248374063 17.580408890992874 17.528353466376913 17.53322925814119 17.593885842142946 17.696216830823413 17.817994819067305 17.934619348790175 18.025739228292302 18.082031466957552 18.109478335001985 18.12672957279778 18.153157885311668 18.19294481902583 18.227753604070493 18.226701398365233 18.167906328271965 18.05518883192982 17.91707815325511 17.788521907619614 17.687716990192616 17.604342134733184 17.508579877707877 17.37534090297277 17.205845591001115 17.0307317804229 16.8939950158467 16.831347038869225 16.85788114489003 16.969270919330295 17.149479110361316 17.376236653392702 17.62252565430955 17.858421205508268 18.056443164224458 18.197806042243027 18.274047266510475 18.282392026966292 18.21994672598472 18.083597454858218 17.87679527621103 17.61710082587606 17.336825907760428 17.07438396402205 16.861203012102976 16.71315249565175 16.63317676872355 16.62277524526207 17.041193502635014 17.172312806482015 17