# vtk DataFile Version 2.0
Really cool data
ASCII
DATASET STRUCTURED_POINTS
DIMENSIONS 200 200 1
ORIGIN 0 0 0
SPACING 1 1 1
POINT_DATA 40000
SCALARS temperature double 1
LOOKUP_TABLE default
18.561649782053223 18.184606169776977 17.776410471672445 17.3615695934356 16.937773100402726 16.497904225240386 16.068642265848773 15.721429433680624 15.538013537835793 15.562606480300161 15.784410385332766 16.154258314940886 16.602367945403145 17.03953704284924 17.36343268062574 17.492557552156335 17.40951969980252 17.17226815197648 16.88048462029966 16.627374133624702 16.473671672835657 16.448536636186752 16.555331572282768 16.76892870271879 17.033335759431456 17.27350549831047 17.424293488845 17.463880060704437 17.42566820045885 17.370185821751082 17.334385076598743 17.303704333302274 17.232222409236588 17.087784331632005 16.879960074860357 16.655856394657913 16.480118430142912 16.4156932800115 16.50606348829123 16.756898383481087 17.125340387390743 17.5288682534792 17.87265729113538 18.0787873594269 18.103635595673424 17.944411850075493 17.63784126362075 17.247191745560627 16.840998919008843 16.47935429658729 16.214531778325544 16.091473761699092 16.133647731265636 16.322817973031206 16.59589612349545 16.86874180944097 17.071341762287553 17.1706999701674 17.17248008208607 17.108347820191135 17.018420469582853 16.935210516131367 16.876245370734022 16.849972662114872 16.867437680324056 16.943833813200868 17.084274402630157 17.267552974933643 17.447239361435074 17.573786346856792 17.621325463016202 17.599855394223052 17.546503832001434 17.503020156084812 17.49391198347473 17.520267348190778 17.573117771235168 17.65274146152907 17.775222768384502 17.960049748837665 18.209355392486504 18.49658488474367 18.775121445508322 19.000643592985103 19.150318233541288 19.228365269545314 19.258450992609127 19.266451679385913 19.260053997468738 19.218261551780955 19.101748744307816 18.87920763687889 18.552076441640033 18.16384782022356 17.789646909701727 17.508244293436494 17.369492886394962 17.379730503354043 17.514304936411474 17.738274499994866 18.012802844571315 18.291248054050236 18.52526366648163 18.684789538305893 18.77017744216371 18.796403985951205 18.76238144260764 18.64170917707267 18.410644890307136 18.08626278739556 17.73301803259231 17.42703654598184 17.210208799310458 17.075538037282705 16.993239392448753 16.94866062624042 16.957914749561873 17.054832894624283 17.26692693678475 17.59696026731303 18.01406592779434 18.452860033539785 18.823167136196567 19.036293515328186 19.04448585501274 18.870402944980636 18.598899723734505 18.331970883153236 18.1412275473794 18.050355064608446 18.04682719998063 18.097956425885386 18.157059539101898 18.16993682225875 18.0926738309365 17.911634763222132 17.648493522672936 17.348192236600326 17.061636353775132 16.830546784212203 16.675012821837004 16.588684738948356 16.54797369079417 16.531998295020465 16.541717390743518 16.60612599643411 16.76936378973269 17.0632905802575 17.479751642729358 17.958916601360276 18.405044374290988 18.72640098441021 18.874259973988845 18.85126497944481 18.68752005710408 18.413237818324728 18.053505399425223 17.64264605219791 17.235323303375814 16.896627687236446 16.675886412024237 16.586160076360926 16.60698062511175 16.705852234298426 16.856853471906966 17.041246519006954 17.236262675277523 17.408781670930455 17.523137567360852 17.559765771962727 17.53194792603237 17.484925967923566 17.47127704758885 17.516228599932305 17.59927330755802 17.6674724876169 17.66881747114079 17.578943038896078 17.404755854191354 17.169813247946554 16.899251584028466 16.61759469697237 16.35588901997968 16.153389758581607 16.047869606988186 16.064675053811126 16.21459076973988 16.497230559349415 16.90078632749135 17.39634158218955 17.93326203263412 18.443573985487266 18.859256922410754 19.137426943966084 19.277729823193432 19.31541012075269 19.29085492790735 19.2195193135254 19.087053991818458 18.869901314500407 18.035595210879244 17.721144937911035 17.3969935364769 17.07985232444329 16.759884173574285 16.421363394855312 16.080928799626097 15.800911630827875 15.658891031970551 15.70266212521245 15.931805286490752 16.30968642958548 16.775751989750354 17.243565282095894 17.607568491379766 17.780371209480062 17.73965832354478 17.540986718229302 17.283757674340283 17.062035352329506 16.937225479743915 16.936858662252344 17.05868009308703 17.268974261023164 17.50414320518889 17.687060358149722 17.75871383453062 17.710776055628344 17.592092130364158 17.472709464795688 17.388865654738368 17.31860104191502 17.21038837969365 17.03427244981998 16.808610981203117 16.588532227507706 16.438059555484344 16.408867344804445 16.528704882927507 16.793115178601354 17.160636841159732 17.558459629651388 17.900236880498365 18.107763544090755 18.1289683062346 17.95147640700536 17.6084499715357 17.168737017352424 16.714176140347877 16.32110147463981 16.055033005961146 15.966616312550254 16.076057536936855 16.35502286146472 16.727412845815806 17.095486726018915 17.374851578742426 17.518150553393713 17.521380074691752 17.417209934666634 17.259259626217695 17.10117290048823 16.979928875988314 16.912907000723187 16.906243944580368 16.961555835538395 17.073282690240337 17.221855010258555 17.372633972982506 17.485213557271145 17.53005979894068 17.504114903066984 17.43442438840207 17.3638552281245 17.327434134926445 17.338652867540063 17.396324546782537 17.502695333992115 17.674134399998046 17.93247147791319 18.280886755425197 18.68341550644758 19.06836403388746 19.357353145797028 19.500940392392437 19.49984580885869 19.401467100962908 19.27203169821037 19.157349362420575 19.05638625719773 18.927000179625644 18.720160550431302 18.41841358678616 18.054820234794963 17.702938486082274 17.443374344330678 17.326216726791692 17.35464504525313 17.498274389474 17.716159216048982 17.965673246310896 18.19984447975702 18.373266382722846 18.4615128256522 18.473041500696816 18.43329065857194 18.35308555390586 18.216814870771707 18.006623388309254 17.738210459825634 17.468972923647858 17.266384272311754 17.164169109621298 17.146109796088716 17.17062006904275 17.210645583198097 17.27381971536252 17.393094386304607 17.602491737929473 17.913628452782632 18.300364179661702 18.69613831384044 19.008655253971376 19.152792546026156 19.091730181126437 18.861765859936593 18.557405755218767 18.28305066986963 18.10779162960087 18.05215535841283 18.099926332464822 18.2094066814363 18.31663162377665 18.346822275354707 18.243117030626877 17.995372135634984 17.645047940313123 17.263883916991464 16.92442792733541 16.677498142403195 16.540348214535335 16.497268246547282 16.513258805681325 16.555186105353773 16.611003053979275 16.69734302368564 16.84925835421605 17.095737431078867 17.434509374444513 17.820787118825326 18.179737380473863 18.440615617498544 18.570346414353377 18.578309257900173 18.490451927566664 18.32178783343089 18.074425119669115 17.75892999564871 17.412740669842695 17.093641776120517 16.85293859226524 16.713259337834135 16.6693869250149 16.70576544415709 16.80912881819651 16.96492972550335 17.146659701811604 17.313192793110495 17.419942785805528 17.43974438240509 17.38216978590333 17.295178812742947 17.239854910385212 17.25089108896339 17.31379321493198 17.378723040105676 17.39672336312155 17.345798276110237 17.230405131666085 17.06505252343491 16.863280287523544 16.641713103521454 16.429263958083098 16.26526878626318 16.18556378114558 16.21143711465095 16.350755133069082 16.60410919760184 16.964771541808933 17.411043723557203 17.898300453704188 18.359879728807613 18.723274006791172 18.93843469771886 19.00110637043949 18.95068635269015 18.83993241405251 18.700086471405665 18.529542343093592 18.310553940418554 17.462005508582116 17.264965050210737 17.085661033245085 16.92422171750642 16.754043205250245 16.54390055033336 16.29776470759018 16.07111951329246 15.943560291028957 15.973970360859697 16.178226738926814 16.535591397380532 16.997031235325075 17.48141960038005 17.88111772935321 18.099273913037575 18.10034128186277 17.92998513511211 17.68728897520918 17.4754703930768 17.366867680908882 17.39188344988724 17.539320211145917 17.760315081162446 17.979759676541224 18.118770992288685 18.1255859927569 18.002996355584653 17.809367465931704 17.61998022542163 17.473250617460906 17.349523550088758 17.201227341761836 17.002577995539706 16.773710850316586 16.56696896898997 16.43768586564077 16.423873336837975 16.539882665859786 16.776161724402897 17.099293089367816 17.453999494049757 17.770413144492174 17.97659387391849 18.015837301060103 17.866659903165743 17.555054731754044 17.1467382786571 16.723457791480485 16.36320457087734 16.134240621118362 16.089968949148293 16.251420536376035 16.587919724131638 17.018451753866596 17.43872142008202 17.756343838134388 17.91574134525821 17.90801905572571 17.768246073652897 17.560797858116047 17.354755189869206 17.199513278225073 17.114095561170924 17.093827882755352 17.124822679714978 17.194364659849047 17.29174357652222 17.4008651236825 17.49304754629273 17.532477870070363 17.49710657733294 17.3983838974551 17.27894636179108 17.188392488358804 17.159412935080198 17.203421986325168 17.324400239677743 17.534126727532573 17.850285129383145 18.272914449986 18.757676279058256 19.21404464219163 19.537707836763154 19.658327175239563 19.574171784098983 19.353478923592828 19.098489651699474 18.890022510158865 18.74692739623225 18.62746326179841 18.46953380005569 18.239252483895033 17.9561639733793 17.683285017912006 17.491624369459778 17.422672974864568 17.473520209114174 17.61075475440647 17.79325975875397 17.98151358696095 18.13544152563517 18.219455510342364 18.21958598535059 18.153367811812576 18.05388991272087 17.939725944447833 17.803535716942978 17.633481513802355 17.44457490573578 17.28506407352838 17.207911499986494 17.231868733794183 17.327892639649527 17.44411439849453 17.546377138485923 17.63990240003634 17.76095498524697 17.951362572622248 18.230789453017685 18.576446659586743 18.919597666257435 19.165697844891653 19.234781183479722 19.104551099036872 18.828521339828487 18.510881656856075 18.2530722111254 18.11257057313327 18.09800080965001 18.185291724932064 18.32685520190328 18.451703199343065 18.477928492759464 18.34579584125335 18.050042505255274 17.64436972574145 17.2157406481519 16.849203527629303 16.601861612109882 16.491059826016695 16.49643896859712 16.574163998002096 16.67841132501449 16.782806635694524 16.891669623754222 17.03208036437082 17.22998235989045 17.486434779927798 17.769084096533724 18.024887998751698 18.209093940938498 18.310224168446297 18.347669486407575 18.343195961717267 18.295343839933118 18.182215942879417 17.98878644379829 17.73082584049585 17.45226862795026 17.200632315630056 17.005630696929227 16.878431687581926 16.824185875681675 16.847795944986597 16.945415192166767 17.093239032533816 17.247230033121124 17.356185976041704 17.38327199444877 17.327152927146162 17.227754034921382 17.144438656324418 17.116271964443904 17.13700215419315 17.167759929686333 17.17200349430777 17.137261176597004 17.069145864011254 16.973880681456343 16.852356532834882 16.710777474544642 16.57218585354198 16.4718683524256 16.439961110431156 16.49022529252645 16.624344300028394 16.841880077009794 17.141786743863875 17.512443185398556 17.91823703699348 18.295389430193108 18.567757805668315 18.680348379034115 18.629548994959098 18.46434588292875 18.253759766639384 18.04613116118318 17.85243078475722 17.66064989537398 16.90795692747868 16.856347922210027 16.857070554902382 16.888040353190284 16.8980766916433 16.83379216869861 16.683469486238007 16.497104173746266 16.360961316829563 16.35032446711649 16.500624713578983 16.807808733867486 17.235052557401595 17.70933116703179 18.124519658308277 18.374731137925526 18.406633686142467 18.249916457374635 18.001479575553237 17.778174970654945 17.67046092613715 17.715995395472355 17.89419500064232 18.13827446199992 18.35989131107667 18.478188364476658 18.447197560637548 18.275561417689175 18.02353557410077 17.767129210197822 17.550065829907073 17.364183957707727 17.17420479619487 16.95981290155673 16.736776040434062 16.54592444820503 16.428101118864355 16.407113009580062 16.487580238656918 16.66049596022353 16.906604097473547 17.19424960401406 17.475721890343568 17.689831500989293 17.77760889294096 17.707844458883216 17.494798763024157 17.191903620136877 16.868094520248775 16.590187749369406 16.420623192308632 16.413721918211674 16.595372867856323 16.93958442042657 17.368108274353308 17.77826737436306 18.079485962406558 18.218954223856905 18.191338942800506 18.035275189964224 17.818327294077992 17.61213841117643 17.465869967675708 17.391812973955048 17.371819686092074 17.378957598785078 17.39884673119483 17.435421591232718 17.495364075744337 17.564111854169475 17.600258939139092 17.561236155974882 17.439028475766953 17.271526391885764 17.120407518360334 17.0381951183832 17.0512412158904 17.166858414012946 17.391571086390528 17.736516438753405 18.197157866028157 18.723537212549004 19.214005538977187 19.54785562191177 19.640134457185713 19.486274704146098 19.168807072464865 18.817140715744483 18.54064831223936 18.37691280440464 18.28846013403246 18.205592368202257 18.080337555590674 17.915131002069515 17.75427254291017 17.651073585105365 17.63495802059176 17.699422606172377 17.814045355449885 17.943269766366395 18.05420527787837 18.115779340474784 18.10431278286301 18.018158781681493 17.883933049014004 17.73953623870107 17.60668626414272 17.482441804121834 17.35975428581123 17.25385148661849 17.20424696482291 17.24749346399344 17.384473946159797 17.572548483718933 17.752457126864904 17.888042396005606 17.986567552855604 18.089416328206973 18.245394425968154 18.48050969186933 18.774632987827353 19.057613814946453 19.234207374239478 19.231537587221524 19.043835174917238 18.742427385264882 18.43831135544206 18.223200322681837 18.13444123161466 18.161954460083532 18.271967947227125 18.416069954750512 18.527672935346672 18.53139046468447 18.373856288589298 18.054426463438812 17.629777366990083 17.18976437890816 16.823388358008348 16.592378257975007 16.51751703068496 16.57768411562276 16.721453581579144 16.889248455961493 17.039783212591296 17.16706196327194 17.293893238389828 17.44533589408026 17.623982241870575 17.805300497916445 17.954249707393412 18.051369772899783 18.10828311452031 18.156314072466454 18.21549013843164 18.272253164097837 18.28667977742363 18.222501964168885 18.073215544641037 17.863382513007874 17.629486816750447 17.402499943699294 17.206660407652546 17.06686074483299 17.007305699483705 17.037566393161846 17.139955343406243 17.27121002383127 17.37763936962656 17.416674991451877 17.377559099763296 17.288876050009936 17.200418442723205 17.146785554547463 17.12444880119755 17.105179823232337 17.068800278708963 17.01877205704901 16.969151053311958 16.924303158412304 16.875956346154478 16.819128325917543 16.76674428154906 16.744855763499224 16.774020340506457 16.858244693801606 16.991680529280423 17.172173542480188 17.404586315120678 17.68804033071011 17.996187416571487 18.26834519778693 18.426504687277678 18.414763386412233 18.234854391621948 17.947992460532866 17.63872611175143 17.369679059699237 17.162275627591058 17.010800705296017 16.463862854123732 16.54668932658077 16.71893010488687 16.937290179564194 17.12420344780927 17.20158018965697 17.140339502840906 16.9845417472455 16.827482328484212 16.761044329296013 16.839224618379827 17.072718877262947 17.43613818450692 17.867148051025197 18.26663062711154 18.52458405975527 18.570779059485627 18.415668154638393 18.149742670061723 17.901674666030228 17.781561185975935 17.83780748978577 18.04414539338387 18.318690614551784 18.561171960223874 18.68780686742797 18.65436883611548 18.468279407438377 18.184004466625073 17.874131107979125 17.589565729642302 17.339640640893386 17.10667576818821 16.87697941946558 16.659300057037512 16.479373081477874 16.361752089815052 16.317067780638702 16.343465832764632 16.436452254689385 16.594194824359608 16.81077144241581 17.062130631703265 17.299392535877217 17.462694466926123 17.51090633969172 17.443271653896577 17.294273985354994 17.11143299170186 16.942290561408054 16.83802365551433 16.852020097307182 17.016444431797662 17.313834655470032 17.67468347395266 18.006800944669088 18.23375942434246 18.319179199610954 18.27073893408298 18.130222985424144 17.95701069864042 17.8080185604162 17.716997150300788 17.682365958309365 17.67418352984099 17.659160979434642 17.62767237755563 17.601384250180676 17.610518040308307 17.656291872103 17.69543675226591 17.667842927416537 17.54438659591217 17.351388897571685 17.154165217668584 17.019512879867772 16.98803563841675 17.07317899337392 17.27953146034465 17.613857139817682 18.06926741253304 18.59501070132579 19.086454622818685 19.415243013349198 19.486589919237076 19.29076912846711 18.915955657178817 18.508102333132406 18.197494942460203 18.03825964202261 17.999368431130698 18.006556908341928 17.998232789213333 17.95679613964066 17.903859020228573 17.873570354426487 17.886419126251827 17.939313807359472 18.012613200406538 18.081428596926465 18.120386996826163 18.105160808873034 18.020712644935113 17.874647720988182 17.699603873685067 17.5346365779792 17.400386891562817 17.294621218029597 17.213562841146484 17.17401956859696 17.209782956358946 17.34373628481059 17.560898054645964 17.807284476682 18.01914678206777 18.16074060750294 18.241927051062625 18.307833886923476 18.412327890795698 18.58723773675107 18.817004420169052 19.03359532642108 19.14426494081774 19.084549793367977 18.86401426119012 18.56790011343779 18.307816780500882 18.158801551295912 18.132538540069298 18.197834850108926 18.312895075374108 18.43458541744548 18.510291935830846 18.48103949999362 18.305378823778778 17.985318617780504 17.572256999193264 17.14942888304213 16.803949398231104 16.601528270738974 16.568922384448207 16.686787435908965 16.89690293153909 17.125644506794483 17.317373783402395 17.458460400260936 17.571566316848283 17.6839420511591 17.799116412280956 17.89561507697052 17.94958138152864 17.960712067777852 17.959880196220713 17.989711891823433 18.07226324733152 18.19054065685643 18.298065242060645 18.347054820314423 18.312692246627915 18.197736702744105 18.02126122113219 17.808060445770337 17.58860870083619 17.402077545947837 17.28829350450442 17.26811032998618 17.328845824570177 17.42852777282876 17.514962247936047 17.547927019338903 17.516474858193572 17.442973622647962 17.365378131384077 17.305725755512043 17.253900813152153 17.185573673548525 17.09439745168247 17.00204481868723 16.93774361675081 16.91277403961052 16.91653829244034 16.93483777217411 16.967836498348788 17.0280193145333 17.123290992530915 17.246858511585312 17.385200367853027 17.53391460810511 17.702373425900902 17.898552208804308 18.10434816522757 18.26400354671061 18.302978069527 18.170861130739663 17.877851683206686 17.494595640687574 17.11376614014149 16.804231854951663 16.592890774089927 16.480068901312734 16.222551292568703 16.393538551184385 16.683990205034156 17.037494763884556 17.356301837968804 17.541590904381874 17.548352237553395 17.413264137420736 17.232767410492386 17.110203897584924 17.112801009261613 17.261265724325906 17.538823843502865 17.8948633774179 18.243061117327553 18.477830111443076 18.518753020023016 18.357875258558323 18.073897582311435 17.79963203883091 17.660265266479595 17.716655556538228 17.943594769034807 18.251448326689363 18.531697667007148 18.69625303929079 18.697525914765638 18.5351824124322 18.252082795769546 17.913947816580183 17.578269815376004 17.273030744550628 16.99945957263246 16.751411979804228 16.53172936112991 16.352844164159343 16.22540908469914 16.149680647849422 16.12019755635531 16.13877348170875 16.22026079380165 16.381123190347818 16.61714756236091 16.890192230788895 17.140792969693255 17.319922664141625 17.41208825116234 17.431000876013126 17.400143737892435 17.345213570917803 17.30327677483396 17.323443693803394 17.441346944625685 17.647705465893615 17.88566653697128 18.082563008192928 18.18910519723458 18.198199014523848 18.137401617196144 18.04828596420258 17.96894097177474 17.92438716868647 17.91988154897613 17.936851357478687 17.940210822896553 17.90071785890452 17.820322058709614 17.738462011514372 17.705185843084138 17.735951658160182 17.78897786751471 17.791604463232023 17.694493609154712 17.50667439639557 17.287541126518867 17.110160892443346 17.026682131737697 17.05906254841145 17.21446615401102 17.499557433834184 17.909316933008032 18.397873941347115 18.864982099638848 19.181567189643403 19.24609247772644 19.04062970919297 18.65072959962319 18.229168316330075 17.919850019100572 17.78995137679546 17.813885539460355 17.912121241437763 18.00817107395332 18.063794217445626 18.08002126722268 18.077400656531175 18.075327611997533 18.082217124850334 18.095727433624024 18.105160745062417 18.092308646623955 18.03541916353263 17.921298249601787 17.759383490480168 17.582268875086537 17.426281256245797 17.308629581816867 17.225958780344456 17.17658727968801 17.179540865850036 17.266012373951792 17.450177154964674 17.706690806536024 17.974989272088575 18.189564998066864 18.314883385659787 18.360789993686033 18.373109709075443 18.409438726126567 18.508944633845704 18.664653556903026 18.815388694425625 18.87385890064489 18.783132023261835 18.562911307422723 18.304442520017442 18.112415035576266 18.04094817171795 18.076052861810666 18.168456895546765 18.272766108160155 18.356113347081443 18.384940330261493 18.32072828273289 18.135284546632864 17.831048606291272 17.44939705637815 17.061992803832247 16.750733231727633 16.583992362397456 16.59463643588313 16.766040433753155 17.03463953861151 17.314674531202744 17.538500987693872 17.687608122545722 17.78762711861955 17.870810658259792 17.942360886799044 17.980637743481715 17.965578782648144 17.906544625059883 17.8454400305677 17.832549273277973 17.89488246139961 18.021194410763325 18.171055412724233 18.29700361083942 18.36354317545438 18.35385175871813 18.267137175817517 18.116324591999952 17.930563456039234 17.755200367214584 17.638158085144717 17.60507313600191 17.643002536062315 17.70858070728799 17.75360682586162 17.74919195260155 17.696931215355217 17.623417239882947 17.558007882929488 17.50599874456975 17.442501586075966 17.338413488125962 17.19438412373178 17.047373369602592 16.944234766034814 16.91000894119569 16.939421730609048 17.013790530122492 17.121119393374563 17.258466382788527 17.419379645258182 17.585981849131624 17.737380751234042 17.865950084311834 17.982329406267038 18.099252522134755 18.205496155588047 18.254647544661847 18.18485110350685 17.959570580872327 17.598740382406817 17.17478441436698 16.77569591632661 16.464397550694255 16.26545130873501 16.182800900028322 16.24017564154612 16.437224890441502 16.766722611550822 17.171252968493583 17.54532943007938 17.779487742015263 17.818142975546024 17.689927798232883 17.48853663911295 17.32027365589026 17.25719720026888 17.323048352467662 17.50472409353385 17.761958949256094 18.025542004582423 18.20418827666853 18.218259047804864 18.046642797788138 17.752039805241836 17.460782036863847 17.304039491029 17.354007080020295 17.59336909075677 17.93367198829962 18.26306490929324 18.488437651791617 18.55511312109947 18.4513457455435 18.20566936868912 17.874192570406265 17.517376402390262 17.177887684388995 16.873230005570147 16.605119066070017 16.373997433717722 16.184350129572803 16.0384646972993 15.931112391436542 15.85679238615879 15.824131946423996 15.860189458702923 15.994943383300086 16.234939512314575 16.548453758469368 16.878338034950442 17.172947000552135 17.40701981432813 17.577032860760635 17.685141935140084 17.7366208039936 17.75284016829917 17.773639550945198 17.8321719230829 17.924249549266314 18.008067854762785 18.038307933736597 18.00309828542472 17.93249068867366 17.87511629165844 17.86574009522339 17.909302875332894 17.98689530073119 18.06888229510457 18.122642634196044 18.118855795833507 18.044686824349668 17.920005868596096 17.79934096388883 17.744451201287674 17.77853585110231 17.860852792513036 17.91020006755819 17.860222648681333 17.70123656754821 17.481131983240093 17.273071441155146 17.13750148437408 17.10552621883313 17.189868492957476 17.400612368843937 17.738231919021842 18.16602034070727 18.593214533962332 18.8948417421435 18.965030917604114 18.775885899029195 18.404642634411214 18.00364182657792 17.72405861489133 17.641500971986734 17.732296668593783 17.908729480899936 18.07808216618185 18.183732944317935 18.212918690428538 18.182139365856877 18.118575363531562 18.0480039999103 17.98832707477868 17.944221753359606 17.904107154822988 17.845289677768925 17.74928480015183 17.618412005687283 17.477995829550252 17.358483565394543 17.273763780617287 17.21998913368191 17.196982606526397 17.22499935674871 17.333488527670486 17.531922923319666 17.790874272873037 18.04921694151528 18.242814540901183 18.335665415440722 18.334685126073786 18.283966225694257 18.244590243105876 18.26495021610267 18.34965093455796 18.447126172302713 18.4762681083017 18.384479177997136 18.19419248321227 17.993897371470783 17.87598520511075 17.87461064687208 17.956115038390823 18.06010688669793 18.142231614951847 18.181580270796175 18.16336702671998 18.06836283025877 17.880454585065834 17.601884233327624 17.263675097989125 16.924798780474774 16.65915138124573 16.533854197510184 16.584765429224465 16.79763967279587 17.106535831710296 17.41849602055963 17.65850369639859 17.80605568210702 17.891380327859707 17.953408274670924 18.00047298517664 18.00959603537065 17.958557418287022 17.85649116116261 17.746366970407138 17.680389494187107 17.691107718834434 17.77918007291297 17.919618168617713 18.07552704201739 18.209978432222883 18.293255962146592 18.30745127139907 18.251688506710636 18.147654503497836 18.038201632921393 17.970195280460985 17.965889027338022 18.005722636892003 18.041402662704417 18.0296384888576 17.959242648640082 17.854608011221714 17.75657864554871 17.691777596520442 17.649357439182545 17.586342670755894 17.463186137073706 17.28064314209897 17.0847166896066 16.93686537511129 16.877478621085242 16.9116334094017 17.021734444650342 17.18732017261715 17.39144214709051 17.613726105922666 17.825908124542707 18.000315183691317 18.124690472894557 18.206417027345825 18.257499792288733 18.272022961967906 18.218629365773978 18.058937022165086 17.779084842579895 17.409039240156844 17.013858399776474 16.66286334105215 16.399937782633724 16.238183855849005 16.18037965695795 16.508448552976727 16.679570588636384 16.973128983253847 17.341811409142064 17.68651065330322 17.90043347160728 17.926185167093916 17.786190150430475 17.566416820235766 17.367098814967445 17.255722035931274 17.251400309309712 17.33902506174845 17.485600990027926 17.640806359701102 17.73581311305017 17.70345857829476 17.517667885170688 17.22386472226822 16.931938039586836 16.767886567708974 16.810812946410746 17.055410701096797 17.422276064466175 17.801818588693166 18.09726833822708 18.24626127249072 18.22557573493261 18.049430831700782 17.761872372007318 17.4202476013396 17.07438630880618 16.75307636054166 16.46591618498636 16.215382957872343 16.004454283441472 15.833639932029776 15.698249404451916 15.597030094964397 15.545303348632295 15.575476103570757 15.718730548003736 15.980251408942877 16.32909164741369 16.713256316255734 17.086598416643493 17.4228915267025 17.708558465314436 17.92968334784286 18.073768843176566 18.14522456260408 18.16969869795684 18.17218844279476 18.150732089477177 18.080025124363242 17.94641168732361 17.779152374847328 17.64515311062115 17.608809342414823 17.689932231541103 17.853096260317884 18.03236459621191 18.166059993735722 18.216413101166264 18.17224044285048 18.047808658062284 17.88476468155627 17.74791990919129 17.700303321352553 17.76292050924693 17.891710344455053 17.998794660901396 18.005503659355583 17.88679533450504 17.67893186517988 17.45224700541456 17.27218215888153 17.177460218471346 17.18705428229866 17.31632289439218 17.573031548422108 17.931121779130425 18.311184604285412 18.595102326457503 18.6754501326625 18.51533461110681 18.18168699176047 17.821951323603255 17.58908435163519 17.56187150293895 17.714271624936043 17.947741348400207 18.153481636478883 18.260667598052528 18.250789038173746 18.145620242916333 17.986960323541528 17.820282865562785 17.68287803189195 17.593576557941173 17.54688897406958 17.517620719758973 17.477347203661612 17.414174899671462 17.340007731766274 17.277115801236814 17.23734219419886 17.218337033768993 17.22154509675866 17.266700488657523 17.380308364097665 17.56885848567256 17.80357730846602 18.02837776734985 18.184367035984064 18.23619490053359 18.187223912626514 18.078994731546718 17.975471036582448 17.933328835061126 17.96731321994133 18.03403229091751 18.056883628620543 17.984160982300594 17.835235442871927 17.69045878647076 17.629505592451412 17.67284856519428 17.77678829878286 17.87721540213952 17.932894063770046 17.93246198470818 17.875616695538117 17.758664814146325 17.57620710127135 17.331909265534335 17.049158423713827 16.77449050681569 16.569562889850012 16.493220782422465 16.5787809224427 16.813938089284107 17.135525136917067 17.45138308337613 17.685869996979754 17.819362465423612 17.88642810320754 17.93220669832605 17.96895942777814 17.97250913468786 17.914931849210905 17.797551676254127 17.655888744751156 17.538384914940817 17.481792494968264 17.50085301373689 17.59052302064452 17.731035179072517 17.892483651897578 18.041011092691736 18.14763648717274 18.19849348685309 18.203184960855392 18.194184102358676 18.20921053868768 18.26121366183554 18.32103160339031 18.334640877965203 18.26393109544694 18.116523281089716 17.94207094380243 17.79963875282529 17.717893102818454 17.67437479731521 17.61120092796954 17.47892968194411 17.27534175552077 17.049232955408595 16.86965690403104 16.78777838399575 16.8188331301998 16.949977255634632 17.157514376668143 17.415115536225766 17.691712686604987 17.9507038898836 18.15828369671134 18.29561345881689 18.361842684184133 18.362757086603466 18.296258083394388 18.15097123956605 17.920748463583227 17.621126767269708 17.29227233823333 16.98535247367633 16.741108887491446 16.57468073194449 16.479812744157925 16.451996125998345 16.95616517055759