# vtk DataFile Version 2.0
Really cool data
ASCII
DATASET STRUCTURED_POINTS
DIMENSIONS 200 200 1
ORIGIN 0 0 0
SPACING 1 1 1
POINT_DATA 40000
SCALARS temperature double 1
LOOKUP_TABLE default
18.4986197888921 18.15646037196055 17.779777128749025 17.38636806117703 16.97920068892187 16.562147205230346 16.164430844436 15.846068912972516 15.67371452909016 15.686729972355224 15.881027151425416 16.2154748900279 16.62383797015847 17.021799527618914 17.319041198163273 17.446721532741297 17.388241242989118 17.18799171760171 16.928915983964956 16.696372899460247 16.55263400594621 16.529387513353893 16.62861197558583 16.823403389295148 17.061481363129694 17.278358409173343 17.420867624027846 17.470706203047797 17.450516201680777 17.402954333915776 17.356082981651124 17.303881659182075 17.21789641552002 17.076980353332274 16.88898639781659 16.691829653120376 16.540240033088814 16.488434016704268 16.572649048982633 16.79568619787189 17.119822579186124 17.474824194670383 17.77930934714253 17.96464835973423 17.991571401412664 17.857131586068498 17.59245313305669 17.25115044404818 16.89319045448712 16.573997110990177 16.34195042208051 16.23556310474381 16.2723357994328 16.435294980744523 16.672046204648794 16.912732138907394 17.09693691606994 17.193236929367018 17.203124658972527 17.152024883409904 17.074527978327296 17.000673425518997 16.94930435360951 16.930933793497452 16.954728072090695 17.029585613335183 17.155592163310807 17.314112322200245 17.46881471626952 17.580740340333037 17.627675041081353 17.61452787421403 17.56863460565334 17.523931904559305 17.50453776915196 17.518582054765346 17.565285023216298 17.646992189175112 17.773848258485906 17.956127628431435 18.190759538641544 18.454126581223253 18.708351661603917 18.917244853237182 19.061022524862427 19.141539028964456 19.17639181879513 19.18471686289884 19.171422756831443 19.12005109427938 19.00125425723124 18.793000216451507 18.499859113256118 18.1599756528506 17.835531876252713 17.590239211471232 17.465408407306718 17.469270970942787 17.584063463951825 17.779491137972446 18.01950146957041 18.263593359007313 18.472960479127938 18.622779997835174 18.708072630364544 18.73295947653213 18.692635966608385 18.569769344125387 18.353491371728644 18.063070295238248 17.750086665423396 17.473160281738586 17.26658629992802 17.13007696690469 17.046098006176095 17.006266516320352 17.023733110310587 17.125009727513888 17.3314046467713 17.6425193509813 18.027479465205843 18.42523301503441 18.756137348461202 18.946606248738828 18.960331314772425 18.818081812116255 18.589062197122008 18.356788739212114 18.18305230304971 18.09194666092102 18.075100542099772 18.103514725779977 18.136046862583335 18.1279217317617 18.04429174211639 17.873883088171258 17.633088578415325 17.35832244729828 17.092659221302878 16.872465666708425 16.716925740396768 16.62445722027344 16.579679533136392 16.56864095477197 16.593670596977812 16.67789917066753 16.85441118689589 17.14410668951934 17.534304758371693 17.971611591192836 18.376394164732705 18.673390570230275 18.8197051372699 18.811514796477304 18.669175388774043 18.418920329546264 18.087822586157206 17.711153549861876 17.337722136846132 17.0217335726599 16.804354032003097 16.699447562935877 16.694946806309435 16.767024217025952 16.893220214143327 17.054352228382637 17.228224799361534 17.385953443333978 17.498002560860225 17.54791895904861 17.544185403253895 17.519032743910085 17.510588188890598 17.538261588073322 17.589204923049753 17.626291386958684 17.61065999909522 17.521379006210086 17.360303499263267 17.144162755173674 16.895034158736586 16.63779120592879 16.402757672965386 16.225252647313056 16.13854666971768 16.165760617138325 16.316926930994214 16.59017483887009 16.97167034464021 17.432419145777626 17.92590519875912 18.392716758810458 18.77512421491403 19.036848832546937 19.175658958231306 19.217441013940675 19.193606951333855 19.118784922927144 18.985966334719752 18.780411138339897 18.004630628475724 17.719875420051846 17.422924287352107 17.12361513870522 16.81619809412258 16.49510439028878 16.180124043039644 15.923983870086133 15.79087510020217 15.823892203687162 16.027557196511953 16.3706709522971 16.794428001219764 17.21728040358481 17.547267794262304 17.711570804063335 17.68969574535984 17.523647881445875 17.29569203669213 17.0915995412859 16.973825757938776 16.97221205559177 17.083757470450106 17.274492929096542 17.48615796164207 17.652915897451326 17.726767689763285 17.700018281258007 17.607179213598915 17.498697694949772 17.403564910782176 17.311985242971552 17.192362676156293 17.025014131233046 16.823184532731275 16.629303402221964 16.496626045306467 16.470827113741528 16.57692259227561 16.81064673045916 17.13527442702566 17.487354492047437 17.7914742104515 17.9787927071052 18.003748544821434 17.855902865552245 17.56326106273926 17.183534639322133 16.7871681985887 16.442781033687275 16.209933775380208 16.132463682256308 16.225850538430763 16.464985276804136 16.785992420916685 17.10647447792486 17.353550449514806 17.48488358186328 17.495685311823664 17.413072603148038 17.281998271702165 17.148031935572718 17.044248474612015 16.987960881445773 16.985565590484 17.03740107563462 17.136953683426466 17.266765987099543 17.397828163107558 17.496708012580903 17.538701976167687 17.520124085882603 17.461282212165692 17.39641807690236 17.356843541285325 17.360027387687452 17.41212322325038 17.518817215003594 17.691950166268487 17.94322294605928 18.267903112444888 18.631955597523273 18.975946034872603 19.236726927691382 19.374346927917717 19.388572517168846 19.315828301768924 19.20709920172229 19.098075944339783 18.989786865769503 18.85302395425151 18.65363657307779 18.381436843353274 18.064621434711103 17.76182975850148 17.536786343845243 17.430775917758083 17.449956736783612 17.57237163673873 17.76275852768425 17.98122791441394 18.18607789082359 18.340593835349576 18.425315279977617 18.443465440211973 18.409371038110883 18.328938533474716 18.193719688875742 17.99732973524721 17.757840936710462 17.52111000836403 17.33807010632373 17.234893533861285 17.202358716373134 17.212772063447495 17.247887134969456 17.314343060411765 17.437861331026387 17.644233074020914 17.93924897418298 18.295757365867395 18.65291692464432 18.930967461943464 19.060163621508234 19.013141779768464 18.8215812201488 18.562839427895323 18.323288804795887 18.163341071534212 18.103833979740084 18.13136863721543 18.207751647984146 18.277519631503186 18.280427123940232 18.172588226320414 17.946065405908143 17.63275126589954 17.290179102836948 16.979355990977048 16.745435340851838 16.606569901622038 16.553416841755087 16.559609704932697 16.599066447369527 16.662082093753256 16.761391498185585 16.923318245862564 17.16763451020534 17.487577665243723 17.842578463036755 18.170281892474215 18.41295744845616 18.54111377184248 18.556876538444495 18.47729257480849 18.316204017208328 18.082046440660633 17.790427845608722 17.47492872262711 17.182195081309697 16.954021938076227 16.812008927889384 16.756725785860347 16.778122581564165 16.864028887468088 16.998952843366904 17.157980021618425 17.305832288849697 17.40606881799621 17.43726621884758 17.406643890874925 17.3495853203848 17.310365124863722 17.314362202213108 17.3523341343586 17.389143167148728 17.388085165924583 17.33007786494743 17.215829357715513 17.05648321533383 16.86617510784831 16.663212401717814 16.474383952365677 16.33299088612242 16.269696580392075 16.30450038429042 16.445841592400278 16.693493275032125 17.03827213396141 17.456781271191872 17.906244159048132 18.327066005754165 18.6575864481394 18.856714485764517 18.920677784066225 18.879992844400945 18.7765737617578 18.637976452833396 18.468071676733977 18.257996399616573 17.473574184540702 17.29150914026054 17.12362777093427 16.96533045759792 16.79539210835217 16.593657800375006 16.36828724535612 16.165903776160423 16.05220411756063 16.0792242925445 16.264840638468666 16.591315548897963 17.009997458570634 17.44429040335764 17.80109581695321 18.000810649021 18.013399926229408 17.873541740907292 17.662572521818472 17.47167122824685 17.370012044854676 17.389003055647066 17.519398463930123 17.71653545100158 17.913493207516936 18.04240739685914 18.060028844133505 17.966946687162913 17.805597790388962 17.631803604257666 17.477707949906073 17.33616623339877 17.17878136407454 16.988965610036324 16.78116132243577 16.595181476493426 16.476825320213745 16.460758722986494 16.561902569926705 16.772683711081758 17.062882273035182 17.38234908315918 17.668202027304048 17.856801969157043 17.89952266739188 17.778698141241723 17.515798523245074 17.1651139738884 16.796781240389734 16.481252755506752 16.280914440545136 16.241993705478524 16.38037330712992 16.6686019593471 17.0382250063208 17.40102327546731 17.67787202352097 17.82098471961163 17.82304804989659 17.713684351526073 17.54567451947422 17.375070341781047 17.242989045454618 17.167523441864667 17.14789075359587 17.174626271755514 17.23720069027854 17.324528709629426 17.420033926072527 17.49826251860111 17.53080279433886 17.50150444688475 17.419643753935134 17.31827933510063 17.237982196306696 17.209704526240014 17.249795289870285 17.36743356956387 17.573174345082503 17.876038665903394 18.267200971209633 18.70342300163304 19.108400646513115 19.397858992057877 19.51574931130697 19.460506201411846 19.285323331731927 19.070007999057545 18.87901727869844 18.731036894632147 18.599213799399266 18.43996706085309 18.22906683563942 17.98157279120485 17.74556986178355 17.57638459826236 17.508867393814512 17.544977709229837 17.660734676392245 17.820812861511097 17.987519520779237 18.124110962915303 18.201328378325172 18.208396946023917 18.15707316995236 18.069597492169713 17.959460603041336 17.825111610696702 17.66436898082024 17.4941706869518 17.353018755462703 17.28024017288958 17.289352033227335 17.359618773263044 17.453891795540223 17.54733769705407 17.644028334108153 17.77179098709564 17.962101651880072 18.226903243442532 18.542384829901305 18.8478637236106 19.064181253442783 19.127273012757573 19.021373865943165 18.790928926956486 18.52034256473764 18.29392534933588 18.163477530082847 18.140135857520363 18.20291587731319 18.30747696736428 18.392087622480624 18.39091098228848 18.25813107096798 17.990050544309753 17.628741830523147 17.244659735768142 16.910062984254516 16.67646313053181 16.56257997613361 16.5544633423776 16.616866788358188 16.711782388951097 16.816774574197325 16.933850474526256 17.082608345126467 17.281071525777342 17.52678751712766 17.790797632695156 18.029073798290646 18.204935302504943 18.306412000579186 18.34417404275545 18.332534664000285 18.27246596380254 18.15294296403115 17.968176742413664 17.732989335033032 17.48152890517876 17.251655498983716 17.07029393408079 16.95102938142808 16.90038461154222 16.92095894968145 17.006261821023376 17.1337899036444 17.265725117586896 17.360181146389202 17.38884554121519 17.352155037621106 17.280870378946116 17.218271123807448 17.192291906089338 17.199031699135066 17.21107705115084 17.200807739563633 17.15651905330075 17.080784052537208 16.97987739474673 16.859028884004665 16.72776091320383 16.606258126308482 16.52246517952032 16.501263703244934 16.556533146080813 16.69236427559376 16.90836094101691 17.200017112849913 17.55143104977889 17.926308526285425 18.26741938898973 18.511448851702706 18.6151461185557 18.576518272144003 18.434037419487517 18.24240854946725 18.04298341178315 17.85051637974258 17.661832852846242 16.971844566454465 16.915693297660074 16.90398529488258 16.91387081457133 16.90343653355998 16.833412222682636 16.69815072816968 16.538888149951724 16.42573962541503 16.42318879618843 16.56502134435516 16.848308411667848 17.2358488414381 17.658219475516347 18.023441337227162 18.24523218045991 18.28110102568983 18.154564097195376 17.944702133747274 17.750707392480514 17.653083491580734 17.688165300197298 17.841028976938677 18.0551017433485 18.253545479106272 18.3654747240565 18.350292353318743 18.21253664510915 17.997226425748128 17.762616495334655 17.546100138966068 17.34925368808216 17.152570771015174 16.94381032309264 16.7348550449703 16.557026765148507 16.444347951244648 16.41965211956346 16.490180919170122 16.64937427338493 16.87855368844763 17.14597051992673 17.406006318089084 17.604034005537194 17.690486063729495 17.640000031657575 17.463586939635896 17.20446584006881 16.922175350004142 16.678682589249238 16.531928248666382 16.52816887746977 16.68603400205983 16.98117840747284 17.347600725414036 17.699342417125695 17.960081643493545 18.085492590993606 18.07178919530046 17.95141374034331 17.778901594291202 17.61073755833159 17.48598768184037 17.416590508682248 17.392170467678277 17.39516402775386 17.415223350013076 17.452304414321627 17.50594609989403 17.56082026961353 17.585257310971564 17.549199758986532 17.447830730251937 17.30966342842527 17.18258925983642 17.111219309009627 17.123469426566977 17.232940187344713 17.448420150521144 17.77494137329034 18.19941459007285 18.67234373285777 19.10675588958734 19.40434336509314 19.497464947027087 19.382891873948356 19.125862170346075 18.828612751880083 18.57956721408036 18.413829106218955 18.308931469277955 18.214839848738105 18.094217283178622 17.946194469400027 17.80266417069255 17.70498629767683 17.67903425188673 17.724116343445203 17.818579637885705 17.93186498637266 18.032251080425972 18.09055081489475 18.086763069533163 18.01961793130261 17.908570899235166 17.78111754078559 17.654800365947732 17.532152459745927 17.414123046927358 17.316717489347063 17.271025351872826 17.303511139739992 17.413394614593596 17.56816873263847 17.72323031030482 17.850565698789676 17.95476190683383 18.06728196085012 18.225280708395168 18.446332121988632 18.709996302602985 18.956629807055897 19.109060176032145 19.110376472693414 18.95744222763114 18.70701694735416 18.447523297994934 18.25562363134094 18.167993101073378 18.181189851395718 18.265799918876983 18.375771663011925 18.452008321857555 18.43317344060069 18.27816910479882 17.987441582371847 17.606801394084922 17.21072913011141 16.87600907242202 16.658351814956813 16.578638180136164 16.620962422127082 16.742697662702785 16.894053171868066 17.040021952381952 17.173220056260437 17.30857489633996 17.463371595784384 17.63817022945848 17.812693536645877 17.958695438967364 18.059754612030286 18.122169539043426 18.166691302433616 18.20726214667582 18.235657298562916 18.22579647694341 18.153533886573243 18.014577452524033 17.8267620588513 17.61863953644919 17.41771134410888 17.24760797844327 17.13043063545838 17.084315378602874 17.113829325061502 17.20162603106555 17.310414035986877 17.396048210682856 17.425919252457735 17.39420278552502 17.324263266911416 17.25280814890207 17.204362212100293 17.176752712660445 17.150256437200646 17.10933038599497 17.054397061788173 16.99518931720475 16.93772067869461 16.880892794371388 16.825137864114296 16.78124011227839 16.767997789804383 16.80119218694473 16.88622708182957 17.02122900426305 17.20463433711241 17.436343313899446 17.70833187924264 17.99164059269325 18.23293438402612 18.369911401088018 18.360781897763342 18.20863630883761 17.961331230319786 17.68540064954559 17.433685699187027 17.23001386965241 17.07682514531617 16.578557477166378 16.64018110919002 16.776382520856234 16.94731277966596 17.089828070904144 17.144312430297852 17.090386012470997 16.963597105250493 16.838538960333487 16.79195763574859 16.872635903908076 17.091177367989918 17.421562315821788 17.803537265706954 18.15009558762438 18.371765430203343 18.414510715199714 18.28881958612451 18.068796302357782 17.860332188243888 17.756225743500217 17.80029630176942 17.974835384862736 18.213582625474007 18.43066071535276 18.551113353455314 18.533572636264843 18.38106538256051 18.13549513608807 17.854339954517172 17.58113821422133 17.33006647850161 17.09427429409862 16.86701186331075 16.656008599128228 16.4816083690151 16.36476102943154 16.317342790806958 16.34157152069902 16.435131427443725 16.59357321735075 16.805353630609225 17.04346954150317 17.26369434632469 17.416701231585385 17.46931323138646 17.419480716091723 17.293990784702665 17.13467668649326 16.987997831147943 16.90227642874501 16.921490850476115 17.067726185971157 17.323157931405014 17.630174795745067 17.913619468272 18.11063870492012 18.190908575496934 18.160640885909498 18.054024818286724 17.918456650176054 17.797828453005263 17.717604621794738 17.67774847739672 17.658984379244462 17.640378789577866 17.61686188560111 17.60254754435451 17.61443433479639 17.64857006887611 17.67189679601999 17.641545034374044 17.53693591868395 17.377395087995655 17.21260834144776 17.097092819223978 17.069556118937637 17.14944542320698 17.345777715628266 17.6613862253715 18.081347973850047 18.554420603546138 18.989674035205336 19.281573241065054 19.35453886345246 19.202039656608655 18.895008490965097 18.55007372752427 18.273396989416472 18.113966111892662 18.05431864609766 18.039498792140567 18.019277617533298 17.97513482293308 17.920464697978126 17.881963760019644 17.878834400809186 17.912683860872193 17.96989344436779 18.028904868947293 18.065516284490176 18.0572234300278 17.99103482387869 17.872389189189075 17.725341240162404 17.579249462149665 17.452300014452547 17.348415941787106 17.270540610057257 17.23439546136934 17.26538060361631 17.37895544126556 17.561821032266348 17.77179466751988 17.959247667008057 18.09499203398902 18.18490481529783 18.2636185734818 18.373151049893696 18.536729574851073 18.73874568161885 18.92298573452917 19.016334093952995 18.969646499303273 18.79100506193089 18.546024773566064 18.322181688998892 18.18319637013179 18.146476569691444 18.19227735425739 18.28428170816022 18.379730206239483 18.42971221619764 18.384986845031452 18.213480745517675 17.918651072098633 17.544216914041687 17.16141390258271 16.846313310452288 16.65714430082909 16.617996007031515 16.712846192441972 16.89295339201454 17.09747060584875 17.279960520581792 17.42588202726734 17.548326433525638 17.665694694512005 17.780853547817024 17.87866593269405 17.941574514135038 17.968607651443048 17.981227674364188 18.00987114473111 18.071227754184044 18.154528004888956 18.22715778847847 18.253924311216114 18.21480238304837 18.110106316178317 17.95463853072751 17.770750271829492 17.58652630538204 17.43499050379156 17.346486195881383 17.33464462455066 17.38655236482584 17.466446185306854 17.53146190194384 17.550609701713153 17.517928230259933 17.45249245912952 17.382699266153185 17.324143857244312 17.270003281713787 17.20360096220452 17.119854801306584 17.0330831003747 16.96490032817527 16.9271338861637 16.91731149622749 16.928662496117113 16.961285631158617 17.021996125864916 17.114968393672008 17.235713157094885 17.375614433744868 17.53103905253316 17.70498007055546 17.896028002703197 18.08247464012865 18.21713714849731 18.243275242709164 18.12539969203708 17.873867018196258 17.54374521387444 17.207748168542224 16.923828194238073 16.720551067735897 16.60509746656145 16.36851913862127 16.51150197707829 16.751942538546007 17.039503541627475 17.29519177677297 17.44272801519656 17.448601272490038 17.34196377419463 17.199122747884697 17.10500617277032 17.118886512577276 17.260932826185133 17.51415164908369 17.82844431993379 18.12621301532252 18.32101566518691 18.35211270467028 18.217779369522273 17.98376991865222 17.757687074052885 17.641580344333676 17.68776274937318 17.88014148658014 18.14779091426602 18.398589536798912 18.552841895098485 18.564828974468437 18.431054396147484 18.18551815383507 17.88172387047734 17.56829942505851 17.272568308655448 17.001403044929457 16.75447028530411 16.53623446852993 16.357351291025264 16.227678080608957 16.15074320408818 16.12638372400493 16.15805577829355 16.254932368142185 16.423132021967945 16.6514540905876 16.904885246415756 17.135203428068774 17.302948044617516 17.39343154686254 17.415688277608954 17.39132328214318 17.348265013582264 17.32202414077673 17.35132571881399 17.45989223489927 17.63707437722134 17.83786326137597 18.005868389994642 18.10204110710724 18.119521689932988 18.079018762528275 18.013326145392295 17.95264453377048 17.91558029585705 17.90441594151631 17.90465004095362 17.89254941547775 17.851173762730223 17.78607642447337 17.726486537343767 17.70499834559997 17.72787425953861 17.76205597989497 17.754195174045773 17.6679785340799 17.50967106182332 17.32448997377305 17.17142047268747 17.097735537983464 17.129833426674104 17.279861394763575 17.551800448377616 17.93267752171246 18.374468782860244 18.788396084982857 19.067317022216038 19.130320184834435 18.965475972723414 18.643169147003874 18.286628371296768 18.01329914389256 17.882329409459924 17.879779729764962 17.945187887766743 18.014975868090477 18.05313229389487 18.056463555733668 18.04122323943046 18.025875752683774 18.020619398734446 18.025076791118625 18.029647323578757 18.017670027829517 17.970417126726502 17.876870887651833 17.743402776218854 17.593562542419953 17.45487629060476 17.343738068229378 17.26383743747796 17.219319987323992 17.226166326214308 17.306282427674315 17.46767038852967 17.688675105685455 17.921297153331427 18.11345106699126 18.235388227593265 18.29317559730657 18.322965648453266 18.37082908647108 18.46652249635306 18.60171171096703 18.726503009210184 18.773480984275974 18.7002371817131 18.522070143072487 18.307661454647906 18.13811857709903 18.06108400712128 18.07446940493275 18.144252511543158 18.23054565124209 18.2979646400443 18.31213509602561 18.239526363700854 18.058611245214436 17.774502805625694 17.425125994572404 17.07399150706724 16.79279725590021 16.64028441275525 16.643405448199655 16.786913981578472 17.017631158299263 17.26581407132043 17.476065787835058 17.62934691602945 17.739526185189955 17.82801355959721 17.899949907298538 17.942310962082413 17.94227815222514 17.90701764229136 17.866960422930678 17.85957506316043 17.906619211712034 18.001817120800556 18.115732928997577 18.211489463718266 18.25973625864322 18.24554863585353 18.168373752730737 18.04087945287109 17.889295208964747 17.75066708470686 17.661090406535585 17.637905075378224 17.668883477081224 17.718611723544473 17.74818184057682 17.734992243748625 17.681705149165452 17.610070796529076 17.5423709291092 17.482488577198428 17.413258776761186 17.314910471941836 17.18809844059556 17.059151100222795 16.963278452906057 16.922730069834763 16.93895934598855 17.001619284847344 17.10112566157414 17.231521145803878 17.384334980298252 17.544719746173865 17.69698112418948 17.834163915359795 17.959809021517774 18.076476691152962 18.169342071464346 18.200997749468726 18.12689284025743 17.923670275285883 17.609865314274646 17.2423769834978 16.890634791690175 16.608043825990638 16.421143761940073 16.339292125649102 16.384681216650435 16.559292234297878 16.839668592921985 17.17445901147632 17.478732577475554 17.66778164695392 17.699653442754393 17.597220759809638 17.43444124293062 17.297863539548114 17.250210284463872 17.31519653531728 17.480941424329988 17.70691375497294 17.928644025941484 18.07002373041467 18.071225652003733 17.921895698672408 17.676759745195035 17.43819251372871 17.311318415411392 17.355776478795875 17.561248202330194 17.858229286724832 18.152391765675855 18.359691437957984 18.42784336901376 18.343797431385898 18.130683120974414 17.83502584703681 17.50734593089387 17.18519783174826 16.887533431078413 16.620897559402135 16.389103386439196 16.197134932703136 16.04822312490461 15.941689305385633 15.877846548023832 15.866049618415174 15.925412440209286 16.073048214997844 16.30693053681049 16.597988753689823 16.900269441991345 17.171931684642065 17.389762869509212 17.548017145004213 17.649728012512995 17.70442553373498 17.732925926786034 17.765071436509597 17.82254672292762 17.90050746601405 17.969014649010038 17.996483251623218 17.975083380119795 17.926856843634763 17.887570294930452 17.88350795629925 17.918789843799953 17.977983991789166 18.03580375256404 18.065608098704306 18.04698023038003 17.97567870806393 17.872556491797152 17.78059142428673 17.742793544517944 17.77111924214395 17.83161386091996 17.862445613808656 17.81325599201031 17.676083185257266 17.487728231864292 17.307132716254966 17.18745605077751 17.162110530335 17.24845832958588 17.45456956934826 17.772729023385605 18.161991361388385 18.540155519659447 18.802580575410442 18.865162787970487 18.709361549442164 18.400504217969768 18.062214337234995 17.817298021082532 17.730524902057255 17.788363372043865 17.92293956585499 18.057023612365303 18.13934679038339 18.15531376577722 18.11785143612796 18.0516811356911 17.980802344677205 17.921093869247567 17.876044131811195 17.835775271018395 17.78220572692835 17.700748880520134 17.59202116113307 17.47337463193325 17.367269142897722 17.287271561778354 17.23661958586998 17.220307865461645 17.2544489427227 17.358686192279222 17.536818005069218 17.76355792350466 17.989735095229175 18.163713935801262 18.255637045030625 18.270455461598882 18.24427620812333 18.226585724662414 18.254285213182154 18.327791802138446 18.404969628425388 18.424168844941125 18.347158022983365 18.19125621928096 18.022346223529393 17.911626755549722 17.891252221941638 17.94357802201545 18.025087371501073 18.095843061676817 18.129568542559866 18.106912871769975 18.009942693058328 17.82731900669253 17.565249054678734 17.254791329459145 16.94967431220921 16.714100638037966 16.603929814238864 16.64675858816334 16.828292090592203 17.09363280916714 17.368332520110197 17.592094549376455 17.744263522125728 17.841263368154475 17.908702060127094 17.954284540672592 17.965141599049193 17.927973058561612 17.850422894921866 17.764445308864378 17.71027544175154 17.71527235539757 17.782681988322608 17.894127823263265 18.019766612870498 18.128683552345862 18.196066413743655 18.2078785771852 18.165069651526494 18.086602859640653 18.006179423719107 17.958046895381166 17.956775114143472 17.98628649893257 18.009589912572416 17.99313087703094 17.92759224116987 17.831413906006144 17.735892421424122 17.661390685349954 17.600754766920563 17.5242461638264 17.404898796015942 17.24418331747748 17.07610568614398 16.94734787921535 16.891501267124838 16.91722955175322 17.014526514706002 17.167145003472672 17.358064381754552 17.567094409813645 17.769658693660226 17.94295394475626 18.07505978537882 18.166623051387557 18.220684810454067 18.22879761082731 18.167580676891138 18.01200864229067 17.756731631467733 17.428657022952233 17.08013768767432 16.767012259822128 16.527724241788174 16.378905915552384 16.327742563979502 16.618062003197526 16.78113493523969 17.039477070819036 17.34949067563121 17.631401849916287 17.80269016024117 17.820222498974264 17.70259220578219 17.51806085510782 17.347931777646615 17.250640479619392 17.246805416560942 17.325012549163624 17.452421342339854 17.579732130774016 17.647404940873297 17.60460162861382 17.437676595926497 17.1893077591918 16.949882341147962 16.819881817726348 16.862789838186625 17.076395801483518 17.39810684065264 17.736122183061244 18.00416056855216 18.1435775149731 18.13134804872809 17.97865840625922 17.722278312771984 17.40982681669538 17.08378521231918 16.771832356770236 16.487547941713792 16.237442068898403 16.025857764286307 15.854706081655822 15.723737176996496 15.63650227708286 15.607382301093299 15.65981794177774 15.812872872870718 16.065085925210376 16.38923954095676 16.743504958179955 17.08961467911647 17.402787648190557 17.668349831107935 17.87471553347681 18.01462522210584 18.09310630005618 18.12787013342763 18.13500525452334 18.113706592310923 18.04999287551702 17.939659348213134 17.808165415999007 17.70592087965809 17.679956446615314 17.744286556727477 17.871740227665157 18.010676293942808 18.11063818578595 18.139712379500384 18.08993204879899 17.97737139646552 17.840793075033737 17.733493609634724 17.701679533276597 17.756182152215118 17.85907646826722 17.94111374458345 17.940798809606278 17.837809771403602 17.659898638577765 17.463405014451478 17.30468889667509 17.222929233854657 17.241230446605492 17.373323386260907 17.618533342437004 17.944815874188155 18.278782982732682 18.521039132834005 18.586712945652042 18.451357959281292 18.17334769808234 17.872539764157487 17.671911839256158 17.636953134760496 17.750838683828157 17.936425346958266 18.103506334184797 18.189313753450268 18.174302565378397 18.07538616938966 17.92923794608388 17.77630491630761 17.64883467110227 17.56249247911383 17.512977194646492 17.480704530015142 17.443590046061125 17.391302367168517 17.330420146323963 17.276008547422776 17.238689063442877 17.221887497616727 17.23148529432091 17.28315642688029 17.39435098491204 17.566590326832564 17.774749039413337 17.97288325102742 18.113208797725836 18.167294941087093 18.138878817396073 18.06304717468541 17.99136255410595 17.966340295361405 17.99563664874598 18.043559511629923 18.052692221806627 17.986311105581855 17.859872553270797 17.73321971353166 17.667748681274198 17.68452620870967 17.7569774815191 17.837470457897563 17.888008955293625 17.89029594582234 17.83742172826464 17.724725753609047 17.550113882767512 17.321413182154583 17.06352734009546 16.819354394420536 16.64191092676539 16.57915353084801 16.655768437364557 16.85863898475982 17.13538735719697 17.41312301902147 17.6320639170958 17.772673764670145 17.854312084475502 17.906456222489215 17.939187976708 17.93873726688744 17.887817666804512 17.78856737472702 17.66802218682788 17.564833977961293 17.511030149987 17.521634007563662 17.59391947892943 17.711307856912157 17.84843755331731 17.97717461953053 18.073998180138123 18.128059954343122 18.146949083881108 18.154547865760723 18.17674896082029 18.220652592341043 18.264052823331507 18.2679627913351 18.204705398407604 18.079320588348818 17.9278658334508 17.794000581336974 17.69968412564564 17.630205401132013 17.545694989316146 17.412334751834962 17.230035674340208 17.03588501957448 16.882958609507654 16.812794405990605 16.84090490712502 16.96011921460289 17.151521562703042 17.391012115842976 17.64975711759968 17.895266972084375 18.097809951242986 18.23857707778643 18.31163516244649 18.31701218041356 18.252044134845555 18.110861738314952 17.893729222630327 17.617645640357885 17.31788961706654 17.037613102169413 16.81165717993071 16.65568309081063 16.569594555167495 16.553129378447984 17.007308773326102 17.13718596088541 17.333790962225333 17.56614709166