# vtk DataFile Version 2.0
Really cool data
ASCII
DATASET STRUCTURED_POINTS
DIMENSIONS 200 200 1
ORIGIN 0 0 0
SPACING 1 1 1
POINT_DATA 40000
SCALARS temperature double 1
LOOKUP_TABLE default
19.0632251328945 18.144471964858525 17.260708560488972 16.762810318633733 16.500809567256848 16.064863003512407 15.334300849574891 14.652574636104275 14.500219655093538 14.923205622215551 15.466978044454425 15.896170972868413 16.43046079734489 17.27557084321252 18.003509102133815 18.02315471360421 17.399335020114023 16.67859173032578 16.334885982530775 16.332180811264124 16.253723610972653 15.989528462172938 15.877113475647821 16.125583786086942 16.636006868159086 17.248797597945654 17.63253098488424 17.423754721053246 16.81429537929903 16.51712219463341 16.90182476448745 17.529987326146102 17.684085323022053 17.199203899008054 16.51034864940915 15.993283340399016 15.65107227712862 15.474457815433349 15.552849676838687 16.03945534618938 16.944260150197223 17.93832871552658 18.658668360910266 19.041253076153662 19.149614168415916 18.86239388873392 18.13216714507735 17.226395204400127 16.39148699173139 15.654427628651968 15.036575906483732 14.671764565615726 14.71384988237252 15.220438723451144 15.940980422094626 16.48320760166812 16.714837249352648 16.755388965432168 16.695312574629224 16.559522302004655 16.46118760069162 16.462531979463748 16.438447186777523 16.236589126810866 15.991857897936102 15.986801545215283 16.358697174247347 16.980271910093123 17.439244845691135 17.530172751072218 17.348038668959365 17.129602941274726 17.03463198979837 17.220822229434336 17.641085471649994 17.945825300385298 17.954223845066995 17.773741040880275 17.637926960528713 17.719473401602365 18.129237331860196 18.822571790638456 19.43131549429941 19.77198510120686 19.96192991015985 20.073173202686093 20.076663251760195 20.036442617602766 20.0710885009952 20.157049125896677 20.082285425196492 19.792419158113752 19.278213198848857 18.483773167235825 17.472125755401947 16.625565442985884 16.35561373010774 16.53247892547236 16.81332612938854 17.23108884102504 17.869656794534805 18.616661350030224 19.218415624033444 19.360101016159934 19.147425588988582 19.0213704368096 19.1838191057681 19.38094808108204 19.132921076680304 18.279987300631902 17.209560645199875 16.47686913582431 16.303484695005494 16.410624631485863 16.41927345091149 16.335132018179568 16.34812777398797 16.501855232249156 16.796113632349844 17.24153894702514 17.827807358055722 18.45575378591708 19.087277534174518 19.609313413511448 19.649652159164027 19.102610484972512 18.36296108175971 17.808121342413948 17.585951104854843 17.518877202952105 17.480914358441904 17.68482454790382 18.1577812512286 18.58695775993454 18.61933350730944 18.233986245194888 17.681918281548775 17.12130589159682 16.567025690124286 16.2388395798253 16.248254484136986 16.371987243571414 16.46163565348069 16.43640045870946 16.318353441888586 16.177832218600965 16.161124828434353 16.353039014388024 16.906382378406608 17.890515250848633 18.980665870846334 19.596838270560653 19.572562659803925 19.22229187049737 18.790547714358055 18.364318016808024 17.845380641316844 17.09792226545335 16.259345207087957 15.658478970072629 15.535287797580564 15.840178718898194 16.257358622643725 16.58648594400023 16.88663449532754 17.269042405204907 17.672572939238844 18.00286475237542 18.096041624071926 17.79275286758493 17.201649728165386 16.65711506995385 16.52893884752481 16.956632261006536 17.660203132009144 18.216836418713008 18.372989944953815 18.087869632689447 17.63505290844812 17.291784285155984 17.057216776798075 16.690868552059715 16.133780655586687 15.620534407285687 15.308632718216646 15.185828808850667 15.232075498922068 15.527613386161597 16.11239352116134 16.91361836480747 17.823383270883888 18.689442738288694 19.38013927284874 19.842111307845972 20.007972231370214 19.990079973957272 20.030291067472746 20.051365549902297 19.931970660078925 19.647812078240385 18.55383547043934 17.738015372675008 16.902175885103876 16.373285540872217 16.119342285919082 15.7455226593495 15.102160806636155 14.570170881022287 14.560837241816953 15.005846467803408 15.462324565844716 15.824437082443765 16.418026811525507 17.433127361496297 18.354814375737593 18.496298901455592 17.946033678870485 17.31982372784484 17.09584124964283 17.183128991381036 17.120340199723636 16.862801168687348 16.78779189175488 17.067219693070115 17.564295064804746 18.104556299402894 18.312018977310533 17.85133631562648 17.053778075604356 16.720562611613598 17.125342158899027 17.701211201679016 17.731466114218104 17.104509230682595 16.30423807538363 15.79330479758453 15.617281243891341 15.695280892798385 15.968789865298517 16.496122881291104 17.3223004723307 18.22428516018497 18.909951731413926 19.269047264541182 19.30349652211741 18.913406702786226 18.062774902992462 16.986856087569816 15.98784068675106 15.182028661408252 14.600640043874563 14.365927952981945 14.625819083581142 15.346950051587507 16.213806678317802 16.932457679335755 17.455968082756172 17.76540920348263 17.747485010312232 17.3830361441177 16.941967273636912 16.66349545974081 16.50666546909303 16.337172129617578 16.23313834037945 16.343752529570278 16.64338869553278 16.986984760585564 17.219808976296367 17.339672122071946 17.3270765763027 17.170476026275136 16.953055862073168 16.983196286983475 17.305789970135024 17.578476374086076 17.651764086966345 17.59582423086912 17.49971458191651 17.50898484962291 17.923263140908382 18.822045503235074 19.77737770865037 20.425856046233648 20.66723835911195 20.493529992874528 20.022776015536007 19.568006679426894 19.411194438147792 19.57755016856136 19.760803468197164 19.67067949281226 19.13237163357854 18.190086236643964 17.120710821149565 16.345859009039508 16.190886513613552 16.43241371702589 16.67958932639819 16.95799581183083 17.43048440978681 18.092891824189618 18.702790407223553 18.88120276803678 18.667291135680948 18.475661593765818 18.510698281765166 18.589469546471154 18.34746944012758 17.61099951596507 16.669169750839814 16.060527996181282 16.101250073113544 16.528045394440344 16.832076513073485 16.932160348846878 17.00001119979577 17.047521989157072 17.130480762907624 17.41544531193352 17.95201848594988 18.576917876881428 19.168165866188374 19.603511661725783 19.539056092847183 18.89104657372587 18.115918708675423 17.609816519566806 17.426545600687643 17.373136781773336 17.422715771974325 17.82496571474102 18.541471103827856 19.141518798268315 19.129149164665204 18.460486151163046 17.54953451529059 16.740532793016904 16.132520575753343 15.861250737132764 15.888334318154616 15.965608539221057 16.028274502504203 16.08570161872908 16.125494350178542 16.144549981115173 16.252889769021692 16.439359724081935 16.79102614035002 17.512506139174853 18.41928907530139 18.95729856451709 18.922220405836264 18.61818466575511 18.3361604597753 18.194698465578746 17.980235385505072 17.410491185964236 16.621290866880877 16.01415188920506 15.843270911966913 16.015340080845665 16.21463576704247 16.341089737957873 16.534157337377227 16.886827362162666 17.302882759466723 17.70941458409624 17.96736856322238 17.850915692129725 17.325772530770752 16.586015605585597 16.084725702069527 16.203046745068203 16.743028869457017 17.245761180383486 17.47192561119007 17.40148407157364 17.227193465586417 17.093354948462142 16.952953768860993 16.589825479059193 16.041071753960768 15.636368416992637 15.4710749770372 15.43584720385897 15.498590414897393 15.780608107244358 16.301065841851486 16.90850660211276 17.561202262657932 18.262912289370284 18.932925406257457 19.420309113519064 19.54098347769867 19.379669088766708 19.26422736738821 19.230907164313596 19.181191148609084 19.022242602078816 17.838703005754247 17.33151449862489 16.771735393111275 16.435863648670324 16.370815650473446 16.15103076824437 15.554014017131044 14.979682973792217 14.852832236600888 15.156297774602603 15.529803019759322 15.889977708301842 16.536364945546488 17.629940820916346 18.68692840338622 19.012620924382382 18.623668852266093 18.037744713858803 17.712524989856078 17.66240177655199 17.56265534064158 17.459971453836506 17.625024598316713 18.05116223473861 18.536535504885595 18.941484583999724 18.958637898284838 18.34670221478654 17.496267340951228 17.14277400203016 17.443807388795594 17.84711791351301 17.788644654683342 17.235071045739154 16.58274048164765 16.19115560440941 16.099552350134623 16.25058328242677 16.550278860530415 16.983932253975972 17.592719708603706 18.246874409562476 18.776881061923067 19.100548406284254 19.13369923850127 18.71695217236744 17.84501685914912 16.790636522059764 15.891647008002458 15.239190268443368 14.799066952084656 14.703914416963771 15.146205827629148 16.02714162909721 16.98312321183331 17.814839164959654 18.531731858646335 18.997543743947645 18.983205414360715 18.434089534051992 17.667084780980066 17.074615791913377 16.78249796321499 16.68133589211671 16.710167434108012 16.85879150433194 17.013629520079988 17.10122588547132 17.24223925042646 17.54567911507712 17.78662250131385 17.66844836583898 17.195584782214073 16.806673551204177 16.73728407687942 16.844987121558887 17.039352244228 17.242045233480678 17.33782547109759 17.43077394384977 17.914504320061386 18.919473552008327 20.023490060751392 20.79522911516577 20.978109427987842 20.48415955381688 19.57211088548434 18.76846968932407 18.460554736509195 18.69296000563198 19.069020456028216 19.125874328270086 18.638669074843378 17.758725188967684 16.87286681229592 16.38189428613997 16.497027065826625 16.908277118229844 17.18250453254462 17.31924921198777 17.559557560035124 17.990381431324884 18.387867403246034 18.37768985260145 18.01202226588985 17.712568712463604 17.658003195954645 17.68417353336191 17.553829932319296 17.152169104551472 16.621647572089284 16.32273117960913 16.567331332851108 17.170923283294496 17.609980751486063 17.75090527632583 17.771570971478386 17.711112241456284 17.675531822209315 17.908161340470734 18.479136485163743 19.176575784760796 19.788850164287307 20.130478918948736 19.89381557786092 19.06705461975998 18.187868510030558 17.701063394062587 17.586688130734196 17.60432232017371 17.747053796952777 18.236295666875236 18.99166334022258 19.564160776799657 19.44480361050657 18.610833825053334 17.555974291543926 16.688488734922494 16.10530178550004 15.856913077795856 15.868134364147041 15.934581449214052 16.047510595780327 16.2330801510521 16.383929435554297 16.439344053352297 16.56326168245952 16.732838921814775 16.909364633622342 17.32116595264556 17.923005196032317 18.263269196877978 18.19493956060623 18.06691896021628 18.1551340093689 18.471838981043717 18.660922635020007 18.348501819200827 17.648858236788776 16.970838373238852 16.57786720747471 16.399684635672017 16.229842718533522 16.081702507517594 16.13067273093404 16.421610433093527 16.79258350237234 17.185862006318242 17.562346607459737 17.725749112181187 17.479863327380844 16.810223149775382 16.15949521871437 16.055735303699326 16.36833422199479 16.64266121376651 16.758827147294827 16.816230575311167 16.899808548941852 16.953704893232068 16.887471994201647 16.56356881369366 16.100373359655315 15.875123605427039 15.939967747699804 16.088880618034587 16.211686491600528 16.426050018702355 16.785757124756977 17.168945919551724 17.626503830987733 18.24691503716695 18.88554518892864 19.235820020595746 19.07409876949655 18.58395831560676 18.22885930315968 18.118554608495682 18.114280868221144 18.08123933682866 16.7371577170948 16.67191807019767 16.60115339145192 16.699920738102485 17.0219514946836 17.099458870377525 16.62713866237047 15.959501986521774 15.573590186271705 15.632464238702672 15.907010644066174 16.254971374727123 16.853164883580757 17.878333864279117 19.003202783473657 19.556855580433297 19.36302800647235 18.725024332792756 18.101297609654186 17.747048958990902 17.600967378050736 17.76503222360589 18.260820863739685 18.82354485555676 19.228127783049448 19.450333188418988 19.315434429882348 18.66104291941275 17.83802917170866 17.437570420897135 17.55471543576155 17.757875587338425 17.67131389371015 17.299197064564652 16.876808497673526 16.588663580886553 16.472733268809154 16.540669348626988 16.72691501484651 16.982108063471223 17.328788895969275 17.706215002622233 18.09807286923548 18.48595792909334 18.667087569192212 18.37222777372827 17.652065280948293 16.85628374324968 16.299002831611208 15.924506205072722 15.593314734389246 15.49903009110992 15.943926303517099 16.834494251806635 17.799505920647103 18.66381549840686 19.40672691668278 19.83901033515885 19.77408613370185 19.176005947403592 18.284049271943257 17.518432601205863 17.16702312452412 17.157713059226282 17.27959173514721 17.387675476167033 17.34607848295032 17.182107239014396 17.24742777755157 17.731237031887627 18.22878270615405 18.19651777299331 17.555691526978837 16.77870410542751 16.252045729303713 16.116742596538245 16.372751616437043 16.77566782695711 17.05947500764419 17.32730033284946 17.97148136161734 19.060611839946134 20.179442725856653 20.92924259219595 21.01970076631524 20.31664164441143 19.14923407419015 18.14334290638538 17.707631260805837 17.883788275312416 18.240302820410392 18.307830565167805 17.96649595637147 17.420565169684163 16.960323938410806 16.84228676498532 17.180157232346595 17.69698917555709 18.010522225532473 18.07232923432532 18.107314023964264 18.22135054308488 18.249862352196637 17.928670436604666 17.368865439098176 16.97214534316932 16.880948114760166 16.912891021439762 16.894654434354123 16.819017218688856 16.748555239316524 16.82040081113076 17.25919260409363 17.93957687163778 18.376729094249665 18.448199680299723 18.380397745344887 18.2776883481608 18.26707233938479 18.5694853318821 19.221633717623945 19.979645965458353 20.55909081816958 20.690008870899142 20.15905828552254 19.127505376380526 18.225630908578662 17.87331921183408 17.90922647454785 18.00738672007528 18.171829522645766 18.60954980608548 19.227940624345724 19.62784101500104 19.40075732793343 18.568709517840418 17.603008287469226 16.853841668466764 16.352467824246457 16.110829668221186 16.129862617682917 16.290404431715476 16.57689260076551 16.931381744157072 17.118271962493463 17.07357147859706 17.093084441770824 17.243790807882693 17.36339963820983 17.544538634241828 17.797641938339517 17.84990521606746 17.699858786086004 17.73549076217471 18.154555332051032 18.82622557771714 19.341200263702223 19.330234453597008 18.849225883948364 18.21499592545994 17.669950238878595 17.196165530829248 16.703588022825002 16.257196402596634 16.053897243452088 16.1600266376392 16.393204696544412 16.69451550295863 17.106148053965082 17.496045838806992 17.56046338460896 17.128895913808126 16.581549672722584 16.454850692640772 16.61544778990146 16.610087729441975 16.47012627150337 16.48403786845132 16.7156306936663 16.9681042337457 17.058709056146327 16.862510816098737 16.53032221546836 16.425130366212542 16.59030637937397 16.81930846601703 16.946706184432546 17.03255887103865 17.17670171809676 17.390219671397936 17.815088145806964 18.482664418054707 19.071378922859246 19.142646167229618 18.55263885419308 17.659556342464477 17.036338466740972 16.797931322432756 16.741986217266035 16.743768335549806 15.511051715345774 15.813960175214845 16.28541106121728 16.95074880590689 17.754090201329436 18.179575061284293 17.890955379609824 17.187601554422095 16.595073087449176 16.45194727137494 16.62889797905853 16.895101483054617 17.308140499050428 18.126543262382043 19.241675146876986 20.01914453483689 20.04634460534661 19.369929842347158 18.429718095560457 17.731998405602106 17.510228468152242 17.902104795019916 18.67302685005153 19.318109719475817 19.62004704381891 19.705368568608858 19.533523909770615 18.949743427171192 18.16551485394214 17.630975867646246 17.47961465910339 17.450745047105606 17.318133574419484 17.08335214267627 16.83291955313711 16.603650620377675 16.451297299956302 16.42715313384999 16.471391121000956 16.519364997636327 16.58908222991757 16.70952604033186 17.029784647501994 17.566785938339354 17.97986614503611 17.920057337953367 17.511589887256363 17.15044887910534 17.0418562355392 16.92275637515388 16.577989640966713 16.31126954502512 16.563883869723636 17.311571544606874 18.216034902044964 19.048802095951945 19.661537778396365 19.874733113181193 19.67846366419212 19.137723724458112 18.37352745835711 17.69400081719593 17.460166811343683 17.642989009019423 17.911284671176986 18.00138334865099 17.760575309896673 17.30678314732241 17.170821851268524 17.654224029407874 18.295247978071224 18.40335455796395 17.830706540653214 16.98431396910122 16.242900219328583 15.9256300300767 16.121865297609414 16.50824622844864 16.786034390501033 17.100859065896366 17.817010964848265 18.924633982431466 20.018819639537895 20.74933509273542 20.831775234515607 20.09170309320752 18.848930475537074 17.742927443407815 17.19222555611931 17.25245075416142 17.517224190474874 17.61175558393567 17.547723938166914 17.497349064954545 17.535377888477846 17.70628728044353 18.046139768130487 18.42730442676877 18.67002357129039 18.713013211289432 18.661488445858136 18.541155558714213 18.253234812539795 17.7120162249284 17.100849324180473 16.733958581936314 16.68335402997023 16.715191540032095 16.640816646565554 16.597138106032865 16.73987699181398 17.081461740373296 17.708909363451145 18.44248924270954 18.816876464411575 18.786886464815566 18.64973973349776 18.54973016095121 18.58709750277066 18.912121621087568 19.54623111684105 20.26960902512684 20.740359661669704 20.59031790705673 19.744942280772026 18.608647771340337 17.892602353405422 17.88196790080928 18.191831817749428 18.385431418352802 18.510860109470272 18.810562737302906 19.203454695426608 19.3857810955606 19.12317931398533 18.453769575222974 17.702760493358813 17.087836790545836 16.604896790540934 16.31951599026265 16.355648641755167 16.669672369098997 17.194040697364 17.73494383175133 17.94327591531357 17.784870527573343 17.686495266635955 17.85318532209886 18.051342535081144 18.14058865746467 18.08189761818086 17.804582842421677 17.498787860872508 17.545956342070866 18.0240756061226 18.736307379888647 19.363688314363827 19.62764147888768 19.5061368867947 19.154840680061056 18.741380853407478 18.26639018289655 17.67314111576886 17.00739725276663 16.514825272783256 16.373769882230935 16.44355231379495 16.644529104242327 17.022833969051337 17.483181287698358 17.705828991603138 17.482673333487867 17.133075303825056 17.111707022018646 17.236932334958265 17.034673913554325 16.60688352572037 16.393106924543925 16.55223049861331 16.918910279611115 17.22507579458302 17.24985625597287 17.101393550095427 17.077456105304886 17.2406920359335 17.476882736085148 17.61041517077616 17.58914468134507 17.527423417503286 17.606149717846925 18.037583333455384 18.725301910045918 19.184517774307984 18.93743397574671 17.973261179594907 16.777131440797973 15.949857686044458 15.59567319348768 15.461216607215276 15.40820352008359 14.762517281786296 15.19117288822994 16.016875749865065 17.14343466703768 18.33298688004752 19.01727842303282 18.891422671248108 18.215826540554946 17.51188428515743 17.217411283806317 17.27864535100724 17.408268985612775 17.58705369965602 18.150751657569273 19.178051037998554 20.112127669846092 20.38236258741489 19.800601727520814 18.71089126357673 17.75495031922773 17.402681645988913 17.834698584119387 18.689631040128837 19.355949678695264 19.631949554906118 19.73446223993407 19.70017738602484 19.331241638443647 18.644631745836023 17.94839892413165 17.47344481743035 17.16947643196995 16.93105405305107 16.724933008280317 16.530930469873248 16.326331043630155 16.21167955996035 16.21444295118882 16.196944502211167 16.055472284979135 15.822554934821596 15.674406587748464 15.934474442983875 16.610381791937222 17.23656483162338 17.442076324415495 17.39395458829855 17.464303893703164 17.731623871311527 17.782514925647778 17.380273691386503 16.92852921661927 16.965630304114114 17.522201879889383 18.273688768830098 18.921469622116497 19.215180978833615 19.081955852995033 18.741373199589543 18.380774094240397 17.98910831199318 17.6401657313995 17.64654911430418 18.047575988615375 18.494638492031687 18.65593314915843 18.320871141918886 17.627803663902355 17.19694692142997 17.468344266749252 18.08394098043849 18.33774734943552 18.02248899084321 17.411666546248323 16.743751834163994 16.35361366421291 16.40625338032438 16.61920492925555 16.730531625928208 16.889212933617387 17.44724303024123 18.421097738313108 19.465473344917477 20.240590738814696 20.416018858877337 19.765188413425168 18.557188562926175 17.412311699771454 16.805376861865945 16.849961868282367 17.191285716472688 17.49440343624083 17.762057367174094 18.075716185412926 18.38021619522156 18.60448066336003 18.735796762150404 18.794919612686815 18.861108152882156 18.913113281024636 18.91292166300938 18.754459093117582 18.35730310155332 17.785386905334292 17.288740669862978 17.078218506561942 17.14159121801286 17.169013762734437 16.91483567757818 16.658571386164535 16.74872221389337 17.175658930751 17.896501993545712 18.623882913337113 18.91764734876237 18.840040497625395 18.714087103293874 18.641337692211838 18.636300602524006 18.795408698937678 19.22450360403257 19.808859743221106 20.158001594938334 19.799227214411296 18.781574579849362 17.719903857429163 17.34488823402282 17.747429511628905 18.330536373538262 18.580493759344506 18.620821954039688 18.75779125687398 18.922826425062272 18.923466598672075 18.720895856571673 18.316011574610698 17.78065603352085 17.200633738555737 16.638380523472954 16.27355094979174 16.31172474379646 16.74077128984921 17.45767169041885 18.16869074754221 18.44724110177616 18.258616246069 18.095368266598424 18.283900215488117 18.589262139664644 18.68037453434526 18.42595641894467 17.89583215831967 17.428464475177734 17.359809449166875 17.651755191962465 18.135078578287963 18.663410370178223 19.091529622029064 19.344034639099046 19.413230186834337 19.335375162516133 19.081930004207212 18.595751656332407 17.9048434848642 17.31505010963416 17.10800920023961 17.162695185199556 17.31660994848004 17.565441957273258 17.86686440719899 18.00580186017762 17.85224386109733 17.6745901083161 17.789484929326992 17.959782714104545 17.709383549001736 17.097484740703383 16.581458428800506 16.455231753878774 16.736741950929872 17.157797499159965 17.376152461764026 17.416584229721387 17.498210591305106 17.71317339318085 18.04056876564787 18.284923661469133 18.252218346804675 18.036677511825257 17.9632236927409 18.29710375216263 18.857698237962747 19.11652513137315 18.656132166364706 17.554079181501688 16.28414570359222 15.386300121212138 14.994169297432144 14.840819123670595 14.71130834328704 14.844825089553414 15.126181177375164 15.954759195207073 17.215710396304345 18.53101411191473 19.308657100028224 19.29242582857161 18.680153780889007 17.911016429233626 17.47058880662691 17.422540763122246 17.468401700653665 17.484610586870975 17.788032073980702 18.591417148711354 19.509858890986845 19.96742624248451 19.601118560378932 18.573242179356505 17.499037708106567 16.99413610737728 17.30778435149805 18.1130683390344 18.830499186711958 19.232340578246166 19.490566151833026 19.65454972166534 19.524811581578483 18.985283328438424 18.191982300388144 17.43829868700837 16.902239934464347 16.59225569549533 16.388746885400206 16.179364630559412 15.986542971886397 15.974026185124565 16.083764065675958 16.06155102093271 15.781104627609475 15.313780731636276 14.973482405880773 15.193022957943407 15.939011903857025 16.700003910109835 17.14264285751889 17.390812373669526 17.720450199191244 18.169474577433952 18.323658943392555 17.955256288783055 17.48739536485243 17.46059022175467 17.86593754801503 18.323382543486442 18.526065860729698 18.30003993684975 17.790138608720174 17.395900114662027 17.365097343127534 17.541587254982616 17.702338484914357 17.984652701172184 18.459121473768572 18.89172169055666 19.046401137603198 18.704942268421323 17.948509320259646 17.34333664054435 17.405322847867655 17.9533277148471 18.353147355459623 18.333569201472955 18.014420797903288 17.490975373620923 17.04856542982194 16.935984859391393 16.99315739283418 16.979624125954228 16.94057303542992 17.199754518423894 17.897262370848523 18.810891894220408 19.6146259950565 19.911306518518483 19.410770616089653 18.30170418291824 17.17836952776637 16.611138834204045 16.78130108487098 17.352430323400863 17.92227571594597 18.366029954444254 18.69833244078046 18.916227716291495 18.9998333775968 18.903220370539056 18.672406296858316 18.543081824830413 18.571931204639334 18.672166408138605 18.646395441500907 18.358247635234232 17.895010048702012 17.527877671096388 17.43513100028302 17.603004234747303 17.67144361221844 17.3310111174392 16.931697292991416 16.939282924695966 17.328662450230834 17.99535293189768 18.64037736875318 18.900479025910673 18.875063623727637 18.79207255888706 18.66281594020863 18.44630588354288 18.26978495409342 18.400352413428966 18.84295058241813 19.159900960173527 18.792249285075773 17.846590151889696 17.035800613052807 17.018484298978255 17.694793812352536 18.36357977811231 18.53804682111313 18.442523678923536 18.43982097609658 18.446583396486275 18.341251554541728 18.226884105763332 18.042263196691877 17.619655148296133 16.997379483590496 16.363247316796986 15.958263057675905 15.989814707946138 16.46303096072668 17.2992260019666 18.164119929665233 18.556320301464755 18.38057964418169 18.160029412147686 18.321816650680823 18.672826224493654 18.803481328781245 18.527257190742553 17.94899188923151 17.425832397699594 17.23100356403171 17.27481448768933 17.455829485672716 17.78066461887084 18.229834361017762 18.71167610929845 19.103460384561053 19.300487363261013 19.249813160907735 18.94933056378151 18.430284265665023 18.01005947890162 18.00576679228931 18.25613136210687 18.42703709432344 18.43226235618385 18.356649650630526 18.215524813636854 18.036697699941335 18.024936782611913 18.302834796254565 18.568403344761393 18.39804491366089 17.773392245012143 17.05390900376255 16.603126052589424 16.627732291338674 16.94757379818896 17.20253566863293 17.376187792256683 17.60497702416518 17.956693675907715 18.413431864421757 18.751919782629095 18.725066077228366 18.43989630655469 18.278254196304633 18.47142149436141 18.79772856891307 18.823815911963244 18.307045558391607 17.369791138697163 16.32640996231895 15.554817833160326 15.234009793621007 15.133331071028804 14.951363797397448 15.569504416286774 15.556891623188701 16.113495162755594 17.170196413571084 18.31634800625752 19.01978989380179 19.069456762629454 18.556356047583975 17.782185170405 17.24815392105668 17.177526914077188 17.288844458643 17.281007077457208 17.332799095994908 17.74091250849472 18.373258089588834 18.810394834708102 18.633248437442354 17.7975506883753 16.737715492243616 16.10723713239853 16.255621811954082 16.997432915239248 17.83147321793441 18.438234774579755 18.85613676643333 19.139783553838118 19.1659402079499 18.80587467793061 18.094417114133552 17.291592470046286 16.714051078254304 16.44456754292482 16.2538293928571 15.965586744027009 15.719618508359526 15.73458483657466 15.853491856582023 15.771183300346069 15.424486768269803 14.946905422085885 14.667571523356003 14.95746403558247 15.70619817550639 16.4778534198699 17.065561159579566 17.501854419457022 17.925053151965173 18.41720686180704 18.675436831336302 18.46560231966967 18.126756813537277 18.139940353460496 18.415562978905065 18.49078205519324 18.11426846953103 17.34065783424991 16.565064212351615 16.253224244666402 16.616286874754913 17.36912506416446 18.04056486890936 18.539553520385354 18.876469611365877 18.997276323422035 18.924015255113705 18.55759542903736 17.908280492182058 17.380740331692643 17.44097556097188 18.01687005303076 18.554802669486406 18.744622478610978 18.581180501401267 18.080545173142664 17.50585072881557 17.217195442213423 17.1985767176952 17.188766299781093 17.07071690330423 17.110862188259464 17.56397577455089 18.32486173348962 19.114420722677824 19.533727092225455 19.226335509600506 18.2459817872323 17.151633076116884 16.62549238545598 16.907585856920093 17.651214858855298 18.36141643177078 18.78706340505596 18.910038918359454 18.846281413045798 18.716851023474288 18.481371539665496 18.112797102965207 17.843985097807074 17.79368392498914 17.930891692270258 18.078710197953068 18.031755178688808 17.751046271878867 17.425971689167415 17.294068456251686 17.482216225275412 17.65465801141567 17.432999351185398 17.123597610288463 17.164574068878313 17.47923342080973 17.98519594792011 18.512984512935798 18.810872897507064 18.88787202344511 18.776753420833103 18.44539212618139 17.916873993076347 17.422660102771626 17.352920178030686 17.762753729617472 18.17657052334199 17.997972805390575 17.30980859145357 16.798727821573596 17.009273132411366 17.73372800756991 18.29950879349601 18.318174036047083 18.086824810986773 17.996381747282772 17.93701989185574 17.794694572060607 17.715201605672803 17.59772741889254 17.17093347680518 16.51530593325078 15.908638946237556 15.55825867181847 15.62593737397387 16.13300060828541 17.032744740218245 17.981898527941844 18.42557486961286 18.20319193917641 17.878985846939596 17.971026464319927 18.325002649485132 18.509814950446938 18.33313350416482 17.879530687006945 17.431148790750346 17.19856561241904 17.100064875878243 17.078198750389888 17.219683900005464 17.58414964502897 18.0826024109549 18.55331246366443 18.822806402517582 18.85808389913405 18.73742041583866 18.463010538820416 18.311640230173285 18.614545020454916 19.15495129454519 19.38441554924458 19.10204236513281 18.549231647235995 18.021984686606366 17.755387928415434 17.90686982811322 18.370017546320234 18.738056265722115 18.67689248833089 18.158010568622387 17.42843286978765 16.81667958510628 16.602660080754475 16.732506140846297 16.95266256571335 17.237885793190674 17.606229338941876 18.04377007516192 18.494536300312635 18.773510284267385 18.725946555450925 18.50559399275645 18.40543817830421 18.490401120862224 18.519861794780372 18.277152363003434 17.796954847184036 17.242147763513994 16.679300874833384 16.232330797444103 16.080172402529143 16.06705175169723 15.85940032994291 16.51547326635