# vtk DataFile Version 2.0
Really cool data
ASCII
DATASET STRUCTURED_POINTS
DIMENSIONS 200 200 1
ORIGIN 0 0 0
SPACING 1 1 1
POINT_DATA 40000
SCALARS temperature double 1
LOOKUP_TABLE default
18.441286803951154 18.126589534401532 17.775837961740205 17.40278800396601 17.013927465973108 16.619727254347833 16.250194978474003 15.957027827360937 15.79590913654176 15.801483112504787 15.972896113973947 16.274895151936324 16.64615806498405 17.008652903886425 17.282005269973443 17.406632256351003 17.366846807509308 17.19774388663414 16.96938683036628 16.75878247469188 16.62626162366751 16.604134319680256 16.69448791602929 16.87123778547681 17.086557222215024 17.28436769554744 17.419746995949 17.476027078012816 17.467928574055637 17.425925046462336 17.37189915111916 17.305036386350828 17.208561142031744 17.069803679146734 16.896804152215438 16.721295091582927 16.58961888577312 16.547896424290233 16.626163460048254 16.825331716955347 17.112158138056998 17.426252082342184 17.697313880516532 17.865057442257044 17.894248892684505 17.78140556727434 17.55263212905717 17.253844240593395 16.938032487207376 16.655969438161733 16.451936221441933 16.35924792881239 16.391306239019556 16.53253004246699 16.738790615619536 16.951474237482593 17.118528918053038 17.210924211212017 17.2274071342283 17.188196241695678 17.122902583014465 17.058882040759965 17.015074828546528 17.002873250279155 17.030168975330827 17.10204455684467 17.215638225984527 17.354252178084153 17.48858157859391 17.5874424811108 17.631986500985647 17.624197211001142 17.584555862917302 17.540957337913795 17.51631627407026 17.522717123579135 17.56459373935491 17.645887473881462 17.77309715625802 17.950530461093802 18.171759307455538 18.415309188823205 18.64954243634685 18.844403901646345 18.9827044613217 19.06450856234985 19.102522618037018 19.110735394216853 19.09231697227238 19.034652513817157 18.916197508800092 18.7220268271212 18.45868727390222 18.15931172300982 17.875518604425675 17.65963201534464 17.546567328306566 17.545371564692744 17.64301516876656 17.81350838703642 18.024380460126377 18.240339851867883 18.428963082088956 18.56846062836305 18.65038589143506 18.672478199261615 18.628293437762846 18.50659587098576 18.304381235428743 18.041460980840217 17.760149551886332 17.50696731655678 17.310823433462172 17.17574081276449 17.092583493028513 17.057634121031604 17.082082582106274 17.186606309494657 17.38692993339064 17.67967169228106 18.03451593491022 18.39546387092994 18.692834080910806 18.865278638204707 18.884483856843023 18.76881365640745 18.575190260010416 18.37270855076974 18.21462266720807 18.124127077745317 18.09597324862133 18.105289595977155 18.11641063156053 18.09183789548352 18.003159079969528 17.840951538591376 17.618064619474552 17.364463463369088 17.116816717334558 16.90711886606246 16.75379191825101 16.658747952695514 16.61274694486984 16.607097012354245 16.64499629210131 16.744625047687926 16.93011330118053 17.21396250331333 17.580806189568733 17.983162429015575 18.353902317607222 18.62988736126255 18.772842213726552 18.775150020257286 18.65065883648888 18.422262126407798 18.11724821264687 17.770354816183083 17.425518325730252 17.12899886062962 16.916079081924927 16.80091840148433 16.777111801993048 16.827153126000557 16.931799704320376 17.072409895940467 17.227716508204836 17.372088620638433 17.480429617893282 17.538387769686626 17.550827947357103 17.540628870524447 17.535622748116197 17.550846624743514 17.57837387997667 17.59200058122867 17.56261810590211 17.472763870134216 17.321764500925134 17.121934346671274 16.892662698935585 16.65795968191972 16.44673475891349 16.291117002246658 16.220812960532736 16.256732356341598 16.407853979012238 16.671202835387838 17.0317855264797 17.4610111627701 17.916110072973982 18.344967446441167 18.698297519425793 18.945007765901437 19.081361263610866 19.126162859784305 19.10394470789334 19.02823364809609 18.897014701538698 18.70186426195404 17.979930082075423 17.71799226072964 17.4420832307601 17.15815918518914 16.863666937888002 16.5595548077355 16.267090960036498 16.03192317198196 15.908200834839853 15.934105361811863 16.116009300306256 16.426783719837697 16.81131932494277 17.19431288736974 17.49473012261963 17.650287265529624 17.6422500354818 17.503536994751165 17.30331536107329 17.118579897796238 17.009405870683104 17.0061661613814 17.106602234232493 17.27883526076295 17.4703175444881 17.62406205415153 17.699396231423552 17.688052767475554 17.614127643713687 17.51469132796718 17.413525230301868 17.308308000037094 17.180725893313735 17.01912846360894 16.83474254718446 16.661558633230694 16.54400133770335 16.521603887790235 16.616286840556693 16.823988576048304 17.112209212708578 17.425345010183463 17.69729533892084 17.867542378462954 17.896100012787677 17.77365769574032 17.523693241259878 17.19514455233506 16.849254055494495 16.54749155631344 16.343489738140757 16.27533802940981 16.355176370448756 16.560798650117324 16.83814911572703 17.117541467810174 17.336345951839917 17.4570830603086 17.474296488890417 17.410110458579265 17.30219690060045 17.189473651708173 17.101382226690387 17.05453556500566 17.055432404872523 17.103873482154572 17.19300174318472 17.307044053931055 17.421345722147002 17.508082881856172 17.54659668379097 17.533033241389578 17.482918647890155 17.424120862572607 17.38460492976577 17.383628227173173 17.43174504885871 17.53676767044607 17.70742204447342 17.948712041922196 18.25107793248573 18.582592670989644 18.893106635369865 19.13093067759342 19.263337461995647 19.289215887259733 19.236416906625315 19.14440834156884 19.041483463612778 18.93029179793287 18.79113663278475 18.600773803451784 18.35415743477729 18.07542455697885 17.81182501015959 17.61456268662388 17.51813035695248 17.529985857861313 17.633857768973233 17.799633093755055 17.991318040258843 18.17218697476227 18.311440364874453 18.392221614449358 18.41386747355876 18.38364366977354 18.30468189729819 18.173285549604785 17.990069452356412 17.77379452405123 17.56192184719207 17.394060317505645 17.291362420211673 17.249445193979586 17.250293207647022 17.28210325182942 17.350891881859205 17.47658352782535 17.67806342101323 17.956480144408854 18.284639214917533 18.607599325852743 18.8567482468741 18.974615241482574 18.940328244624403 18.781105962933832 18.560777757463313 18.351359386217656 18.205328160268216 18.142654098172674 18.152575871592287 18.20141681929543 18.24154965293481 18.22360922504186 18.112800133311115 17.902871131817612 17.619129260971366 17.30850703253882 17.022577440161697 16.80132838838136 16.66304355373173 16.60313301132351 16.602244003048813 16.64027079554706 16.709453024419396 16.81909882728649 16.98816820069178 17.229065403535916 17.532143770945243 17.86103738225281 18.16316075001224 18.39013011311181 18.515105321846626 18.53570676638762 18.463252512118387 18.310566002647096 18.089656358798806 17.818790860123134 17.528524177052383 17.257771897248766 17.04150342577114 16.899916624999555 16.836910064540014 16.84620779040532 16.917008908702766 17.03390704568055 17.17372176346776 17.305900329112028 17.400193935679507 17.439096883270818 17.42750284003857 17.391361010736897 17.36304745200609 17.361456143650614 17.38077292212612 17.39596643680442 17.37940539189344 17.315099220717 17.202027387013057 17.04913174301251 16.870334208515303 16.684250152028337 16.515735674959846 16.39379048802577 16.345102786211065 16.387989778822377 16.530600550560255 16.7718341109685 17.100722575997644 17.492940766729156 17.908025677160406 18.29303266207298 18.59543506627898 18.78097828977807 18.84583328068118 18.813570436629497 18.71783457501575 18.583029799744658 18.416550043847565 18.21562046717319 17.489339001691533 17.317926985487986 17.157377156203626 17.000996560657804 16.832173455189746 16.638424972101244 16.430417689900594 16.248273191175773 16.147177805895012 16.172558078216667 16.341810009492608 16.63920707816679 17.018532015780238 17.409109885084312 17.729568451635902 17.912866923354148 17.933359457151365 17.818435042432434 17.635993190666824 17.466025400937642 17.372574799225973 17.38665632489159 17.50142607054193 17.67724394248433 17.854975221833605 17.975653756158433 18.001762358201525 17.931306999781267 17.79500346212545 17.63509191954564 17.478926817888034 17.32704465942735 17.163928319891056 16.980290875736735 16.788009802264607 16.61854263570598 16.50997747705572 16.49306975837839 16.58215266538391 16.771040605082817 17.032476930325124 17.321044150157277 17.580258232303315 17.75384457727547 17.79971011647004 17.702782013356963 17.480817896048713 17.17941713463894 16.85934139675427 16.583725702357057 16.40876563770783 16.374541181229134 16.493325160095637 16.740694995579837 17.058534976341306 17.372253550914603 17.61444746438404 17.744031062108245 17.75437911329749 17.66993372531615 17.53405340755075 17.39276777684954 17.280698947226508 17.214747670796186 17.19666527556432 17.22016729663312 17.27639671035682 17.354377366496134 17.438017634608144 17.50498183192341 17.532293641128945 17.50768644496943 17.438790569270793 17.352026363708543 17.28136147966774 17.255739410656066 17.29401505603936 17.408146922231627 17.60730616939339 17.894680983377985 18.256281308899307 18.650966237703646 19.01365182832968 19.275287596542533 19.390576311703803 19.357818218306942 19.218575860759422 19.035693884641397 18.861255415326916 18.7133696409324 18.575623951692 18.417873197217155 18.22321059487099 18.003703440834666 17.796645454219146 17.645805317775352 17.580566613192925 17.605331746971398 17.702438674230272 17.841787689845614 17.989016901148435 18.111111544562654 18.183109867802255 18.195463223944344 18.155337303602785 18.07769321545056 17.97284846584523 17.843024663771875 17.691947679659773 17.537046739170297 17.409610643889003 17.339616995802245 17.337366599926856 17.388205880582554 17.465503276681126 17.55138216302298 17.649261816789775 17.780353487518322 17.9677828725686 18.217610465077886 18.50599599057803 18.77960441787842 18.97204232120963 19.03150782399204 18.94648617475454 18.75385517991665 18.52272156962219 18.323674778664362 18.202663143848238 18.171639567666865 18.212753907274383 18.286249912918347 18.33884055562297 18.316668032792535 18.183721939520648 17.93758480564922 17.612240209789718 17.265687664997994 16.95943757315727 16.739405420476984 16.624548589893585 16.605891432652392 16.655615760630877 16.742623086781425 16.847804079284142 16.97111092473189 17.125900417017384 17.323745095578154 17.559695289424944 17.808032708609257 18.031782139403017 18.19991703209496 18.300016425354062 18.337012543392166 18.32046097753067 18.252998487112723 18.130679430618752 17.953759076410368 17.736576832165916 17.506897706876057 17.295773682886523 17.127320257541985 17.015752466907575 16.96807698003918 16.98547228395996 17.060008861888182 17.170643743556038 17.28484510264074 17.368188096185285 17.39839705069449 17.376209401904134 17.324995181552087 17.276631672703044 17.25155348518986 17.24741764859285 17.24461539382708 17.22220161536965 17.169960596031046 17.0889833063761 16.985443188900522 16.866939752950863 16.74479399223505 16.637271271188574 16.567483816813105 16.55638763299711 16.617086234530273 16.754505197516107 16.96777824582202 17.249751674887307 17.581782575744196 17.92825816827333 18.238323219848283 18.45907027955484 18.55582852422863 18.52725656161951 18.403801974736584 18.229512783903402 18.040111767632183 17.85232882746596 17.66871856683958 17.033303526452663 16.971926051523056 16.94802142200346 16.939635612746294 16.912602801759796 16.837929974933058 16.714112495236094 16.576074985466743 16.481860064211755 16.486497772494676 16.620415475949304 16.88076527672241 17.23169429768455 17.60898902226228 17.932497866313955 18.13046187026464 18.168446415024345 18.065842542794723 17.888327930383465 17.720426544017947 17.63316321176745 17.660739315652545 17.792656145469554 17.981112375714957 18.159479905050762 18.265571000357887 18.262808681087222 18.1519056571423 17.966298078519824 17.751347593750317 17.539352588378424 17.33775393057827 17.137756362549403 16.933541236787065 16.735356837784888 16.568186200121495 16.460637670734013 16.43389070451482 16.4963497200086 16.643036423941364 16.856041666506783 17.104383328337327 17.345160488900838 17.529559294165658 17.615190936497676 17.580809889851864 17.43511742671185 17.21401505594749 16.96937422759596 16.75754128187331 16.631052573242076 16.62947712455854 16.766583802613688 17.02009339408031 17.33413228741812 17.636720133876917 17.863737528911162 17.977787486492375 17.975557976220536 17.88366519786015 17.746177309253962 17.608255042178406 17.50162227773911 17.437787290320607 17.41163613296918 17.41198556036921 17.43122777274661 17.466955786205013 17.514746768974344 17.55958429465987 17.57648220859355 17.543498161464097 17.457930214561532 17.34216369467046 17.234598360132317 17.173760171327128 17.18756517035085 17.292663258439546 17.4984135223877 17.80563752890134 18.196449192737894 18.623325931729045 19.011247988829837 19.279189776805836 19.372621649399978 19.28902281408089 19.080220323469756 18.827714738754967 18.603689522868834 18.440426859901013 18.32568878768853 18.223907796480866 18.10643383615191 17.970982749670796 17.840826445574386 17.74836487304003 17.716053142052104 17.74635034035824 17.82354897121355 17.921643179910006 18.011493441551483 18.06640977616091 18.068814503334817 18.016772537416585 17.92413267159819 17.81115268617103 17.692507781417625 17.574143541762485 17.46190445368125 17.371729872484845 17.328487320826365 17.351678894122497 17.439821927392455 17.568001040582377 17.702414421186766 17.82147385673985 17.928216512915423 18.046446236399596 18.203929919741267 18.411739531954144 18.649815186351212 18.867371589292723 19.001463923976115 19.007070357177895 18.882478213488287 18.673265359163533 18.45088632314373 18.279853609278078 18.194528323624485 18.195314213150752 18.257018808573807 18.33759552476218 18.38507306546005 18.348703411286962 18.19618961765914 17.92897404643915 17.58513022646653 17.227151318741814 16.921140604991365 16.716692501859622 16.634036970045393 16.66162080415058 16.76462483454671 16.901657002494957 17.042783503267852 17.179551991626923 17.32085716392495 17.477837407789487 17.649251744766953 17.81807540650476 17.96118176400064 18.06419535210066 18.129519297171882 18.170640345115512 18.1974384401705 18.205370403418954 18.177859054590193 18.099365045515523 17.9678194802886 17.79713573589587 17.610416540664094 17.43186719222205 17.283423118120478 17.18435792498777 17.148288996729278 17.176331866326663 17.251803854803946 17.34270584003966 17.412883655629066 17.437017518553148 17.411733912222086 17.355581265909407 17.295945205370472 17.250730328100232 17.21870859438507 17.185862658696163 17.140269784834274 17.081079701391396 17.015405926868482 16.9499840280277 16.887957007853664 16.833210540123186 16.795485853089485 16.789181292899393 16.826755922468234 16.913850795866164 17.050454861718023 17.2347636830177 17.4629520104548 17.722394457663338 17.983540601012265 18.199760600672725 18.32072787464561 18.31457824751472 18.184908804570977 17.96979451982057 17.722623303882415 17.48843283091916 17.291635151455292 17.13962955924301 16.68166195916307 16.72440300324292 16.829503011268315 16.961056313174964 17.067526925141422 17.103024645575704 17.053487696089707 16.948471863362236 16.84876464538005 16.818620611410694 16.900690683399688 17.104154866562858 17.40353974129206 17.742683662345875 18.04545339453167 18.23791560260747 18.27769485333982 18.17514500342681 17.99198026183166 17.816335263092594 17.726849851788444 17.76278117739086 17.912213786145603 18.120939200996126 18.315456530398247 18.429354470659295 18.424139383975582 18.298934055611994 18.085527816149877 17.829827910599825 17.569374800388644 17.320998307617195 17.085268952309594 16.860856010964707 16.65550131171425 16.486099815863874 16.370940951860383 16.322377116672712 16.344997909492957 16.437623691449854 16.59391533259368 16.798913134106467 17.024550190656928 17.230715025937673 17.375725888290866 17.432070339216896 17.397275449080574 17.29314398928102 17.156698385265205 17.03139623466383 16.961356831123982 16.983244653895873 17.112689179915623 17.33263199846739 17.59504162152325 17.83834331107663 18.01074819943908 18.08677869606517 18.070994290474346 17.9908945567029 17.884242954799074 17.785365464978987 17.71419237964528 17.672108802449344 17.64726501008056 17.62693735532112 17.608780195673575 17.6018135407387 17.61479409769085 17.64100998162705 17.654354565521 17.62334588665365 17.53335729496166 17.399411802347228 17.26055230131545 17.162232721202994 17.140657361629447 17.217864410587712 17.404696238869402 17.701177050175012 18.087953255392115 18.515199328722375 18.90350788043215 19.16524785227223 19.239514808561843 19.121816312201272 18.869506024053972 18.576546587848085 18.330091531065527 18.173992415167426 18.099895722457138 18.067411122523755 18.03615050822958 17.988410293536617 17.932090267029125 17.887976469060863 17.873397537397867 17.892550400983158 17.936050944224146 17.985544849148873 18.0188837111661 18.015573318371235 17.963868480964273 17.867027082380353 17.74267421300777 17.613269657636394 17.49496126054649 17.395275109798476 17.321220616538138 17.287515249146573 17.31365723339639 17.41001805959198 17.56485791678923 17.744848003186696 17.911071993947274 18.039964493108894 18.13507775989765 18.222865119932642 18.33552481029397 18.489415890151466 18.66938757582858 18.828854224599965 18.909655994243213 18.873744325130385 18.727806722296435 18.52315133370559 18.3295521940628 18.20128199728012 18.157920078976414 18.187084353946684 18.257635574326756 18.329374229905877 18.35766893282716 18.300816830227678 18.133642136319704 17.86079393058269 17.52016785285915 17.173063014577426 16.885590032729503 16.708928535875607 16.664774319416413 16.740319864218726 16.89515932730557 17.07884882246072 17.25205529474027 17.399813332657803 17.528541377780602 17.650030881789647 17.765990267718603 17.865342270298832 17.934909461999382 17.973203608327164 17.99500098853613 18.022109562552764 18.06728656895294 18.123988842981532 18.169504435652446 18.178141107391518 18.134288996742104 18.037482927455283 17.899702036134364 17.740754475179955 17.58566996963609 17.46200076056027 17.392877916988756 17.386751318324105 17.430887022483795 17.49496840386337 17.544072953254656 17.554150429335834 17.521813124462636 17.462676157549925 17.398306402101483 17.340293253770348 17.28417773554934 17.218389462569505 17.13903554341347 17.056016406028004 16.985847071628847 16.940104278411653 16.921064451715598 16.926786566114284 16.95791057980858 17.01825216836974 17.10979327180031 17.22922885790896 17.370497960761345 17.52974101281634 17.70527602855563 17.889720815929117 18.060073349072997 18.176301163681263 18.194542603940608 18.089509012357627 17.871313951703247 17.583921489809395 17.285641846067115 17.025692989974313 16.832397324573005 16.716755633985546 16.496050785876378 16.614074897799547 16.81213785403041 17.045668724740917 17.250403380650678 17.366933530053693 17.370331735647756 17.28456299577983 17.17115824967114 17.100340368222795 17.123254885633067 17.25787063662593 17.487448858427577 17.764740384259923 18.021019563734036 18.184765150162118 18.20922564459771 18.09648923122819 17.902196364211036 17.714816248592207 17.61854006794564 17.65829328830965 17.823695331668425 18.057651323045487 18.28191372767013 18.425534750720956 18.44550758640708 18.335450556442087 18.121541730430344 17.84735087398367 17.554415004744413 17.269101425552535 17.002146005362878 16.75754966900138 16.541353165158327 16.36344656431924 16.233482613749292 16.15723197028249 16.137695091320854 16.178736748088028 16.285152430927184 16.45615306294222 16.67649262884477 16.913919755476687 17.128091385608684 17.286388901472904 17.37553250165475 17.402120942856484 17.38594002504448 17.354480532168328 17.340278982610773 17.374500702084564 17.473471027381525 17.626539802061735 17.797653076678188 17.942531096375422 18.0299781774772 18.053512500072806 18.028565255341533 17.98075953153059 17.93381792803802 17.901736381570327 17.885505220736412 17.87435401032088 17.852673886446674 17.81146823222443 17.757825512822574 17.713495677593794 17.699599631754527 17.71689630749727 17.738555806917134 17.724431347578438 17.64749982195581 17.512626918240397 17.355219102246632 17.22383514028884 17.161151360967015 17.195031600809507 17.339728936273936 17.597140498907375 17.949806556201906 18.349970029889104 18.718983543779235 18.9672289259014 19.029630681100375 18.89825613732375 18.631186894770167 18.328552047069017 18.086860219537098 17.9578747902349 17.935387114519955 17.97356632138293 18.020183808974974 18.0426529485329 18.035272000717804 18.01057301082508 17.985369707846466 17.970545987197294 17.967237486476975 17.96725250325183 17.955696649401887 17.916243747767137 17.83919675585832 17.728437404401443 17.60104802626202 17.47827658821678 17.375351262785678 17.299866001208375 17.259360050251352 17.267769926160486 17.340865073945814 17.4825549906566 17.67408762014603 17.876894017275507 18.04931184390362 18.16684051479057 18.233321162157598 18.277043311872944 18.334152897019077 18.426780025772697 18.54613585040538 18.65154192791492 18.690439284605553 18.63070049024202 18.48431326219938 18.304019341178748 18.153907506933205 18.075602236382295 18.07356006468612 18.124020528883225 18.192511323519152 18.244094722626635 18.245215103724856 18.166386695380286 17.991041653978264 17.726140143584956 17.406390095967573 17.08790887154688 16.833215980988516 16.692823619161445 16.689279504169377 16.809312326081876 17.00866770377317 17.230106249747102 17.427362043623855 17.581402516771124 17.698290606065253 17.79169918456246 17.86582034584844 17.9127718294864 17.924492338694616 17.906677307473455 17.88175294176662 17.877910428849166 17.912681394744116 17.983045306713095 18.06779006152908 18.138574172451115 18.171599716212555 18.154158771492874 18.08600644454253 17.978876857152315 17.855604784329795 17.746175313839213 17.677790265197 17.66190419945761 17.68706917227961 17.7242825226518 17.742327850361928 17.723500280449336 17.670490078640867 17.600673005028018 17.5312810630531 17.465725568287045 17.392402008975676 17.297904008048622 17.183105241851017 17.06740480765592 16.977915499187475 16.934211593834952 16.941434224565388 16.994599631698964 17.086363673562012 17.20977716242388 17.355730453759367 17.511430074179128 17.664082402261343 17.806436776877934 17.93695422323489 18.05180972425225 18.1347496819069 18.155348750470697 18.08112278829689 17.897520153681544 17.621789706411167 17.29984105376051 16.987758732761797 16.731274228740627 16.556862793543086 16.476563448421455 16.509721353234173 16.662858940990112 16.901103630990676 17.178741798403042 17.42677512614132 17.579075450117763 17.603957842278916 17.52035541823975 17.387714818925986 17.277145998658884 17.242518054827958 17.305561799441964 17.455157249993547 17.652723440322237 17.839981299316523 17.953260770204007 17.946854036590437 17.817113837743502 17.61188195480395 17.415333811998433 17.31295511019751 17.354302050582994 17.53313471659338 17.79371094635925 18.056267632384674 18.246142234690574 18.314487701305048 18.24695148997161 18.061256553219042 17.795709350133187 17.49304019574842 17.186912065236346 16.897146987000717 16.633578728935223 16.402588131343723 16.210184541141345 16.060971011094228 15.957494734807142 15.903366620597492 15.90742351577553 15.982656781815086 16.137451399083037 16.3645268610407 16.63705999349365 16.916827215797152 17.16903382878841 17.37286021581861 17.52203679902939 17.62008072660443 17.678033782205226 17.714976049597343 17.753856969669247 17.80939172135057 17.876931677916964 17.934759812128878 17.96064630236275 17.949476772402885 17.917606189182766 17.891526663269776 17.89101756252598 17.919106905390723 17.963053759886737 18.001807104680914 18.01418893613299 17.986404318912626 17.919418351849615 17.833275327890707 17.76186723120318 17.73536233585343 17.758816979747937 17.80364946438055 17.821866727781416 17.77477134805691 17.656014791018237 17.494463401349307 17.338418725593645 17.234848679943806 17.217218756658994 17.30463195847184 17.503255053116934 17.800480885809115 18.154137393466783 18.49027363257561 18.720863322608153 18.778566924306695 18.651157009283367 18.39379215313175 18.107464357421797 17.892676037434796 17.804825623796127 17.837029175228373 17.936633870451026 18.039768297006628 18.10111460457291 18.105571105995274 18.06297270535767 17.995212388522674 17.92429807638313 17.86463285711024 17.819208325601114 17.779641373742596 17.731126777103807 17.661652750482528 17.570560112650078 17.46978365336708 17.376285213720458 17.302837795020235 17.25644578494767 17.244890492788624 17.28155731207413 17.379795140654096 17.539755121292043 17.739398672858528 17.938672602889458 18.095845959377947 18.18648681126329 18.214301778904947 18.20840366376534 18.208129843240556 18.241318463061397 18.306092125228556 18.368261171539686 18.38053634793562 18.314649590445978 18.184178651641293 18.039286603250535 17.935987393714427 17.903626838922094 17.93419934074362 17.995966297342076 18.053897581230327 18.080038052350705 18.05282772792041 17.955429748885287 17.779886240160597 17.534870648256042 17.250447252614972 16.97511342523403 16.76467990465994 16.66605081071997 16.70098458655699 16.856190218490315 17.086048929278245 17.33016478771206 17.538924626733134 17.691930217297863 17.796563690511114 17.86916612396684 17.91605088749315 17.930290799354967 17.904417676355603 17.845264995052748 17.777243163638065 17.73175326525951 17.731662361639486 17.781656383523185 17.86862636931183 17.968932314826485 18.05706982122822 18.11239764193528 18.123728442891206 18.09274347401214 18.035384044180667 17.977859324875663 17.945169263016453 17.946624607250964 17.96877128604183 17.982903530002023 17.962990535311413 17.90144117246325 17.81209830250297 17.718866276670894 17.63763497300397 17.56425810493236 17.478511952709024 17.362257706986945 17.217634039052314 17.070465148893796 16.95689602321658 16.905001292980728 16.92498944994622 17.01168744743878 17.152264941163615 17.33073638756137 17.527969291802368 17.72219860115988 17.893583413090802 18.029918564582815 18.12721866978888 18.182969419423323 18.18768163020074 18.12373398483586 17.975117750749487 17.741993139110384 17.44878409384119 17.138702532017803 16.857850330824814 16.640198447670986 16.503725963302838 16.45763240294875 16.712830511873502 16.864959486020748 17.09169244141194 17.35319830724036 17.584590739537038 17.721565146480025 17.731698137531456 17.630864593799924 17.474176012428533 17.328388122081776 17.24381989419374 17.24038165004884 17.308778742436132 17.4178646637407 17.521711400763905 17.569261980469676 17.521551698357726 17.372757272311162 17.162096950311003 16.964748103932738 16.862054522330084 16.905516659365485 17.09437980711266 17.37815155553887 17.679430094509392 17.92209435288156 18.052057621988176 18.04651464477476 17.913288941113244 17.68270857468894 17.394842516163564 17.08676377588614 16.78504586971465 16.505561246206792 16.257597201030716 16.047216130009463 15.878179989551432 15.75334508012278 15.678716870992758 15.666967342049094 15.734755966611377 15.892905668136525 16.13588044160927 16.43932720675351 16.768464529514734 17.09078541824163 17.383375799589874 17.631766838245614 17.82622627041096 17.962397818667224 18.045017395178235 18.086600418565627 18.09794357288248 18.079277414435875 18.02376603631853 17.93278261802757 17.828439106469354 17.749323328268712 17.730207142874715 17.780902732110583 17.88002142801558 17.986626099512236 18.059593754284624 18.07256815804289 18.02031353406327 17.91925749588624 17.804255556209718 17.718943820186343 17.697525037176288 17.74460343646678 17.827603475874156 17.8912024457341 17.886738736153568 17.797574449267767 17.645184361985624 17.475434039638 17.337386053394205 17.269030182477366 17.294645207242123 17.42594553532586 17.65687404493684 17.952831161643697 18.246978745293134 18.45557336255557 18.511177403311194 18.397785599914087 18.165827396268075 17.913320822816612 17.739975162960228 17.70034273089827 17.78364485798638 17.929057871470835 18.062011180614455 18.127851012998455 18.107418288559387 18.013763863032967 17.878621028540824 17.73767135065085 17.61906570001408 17.536229285549492 17.485858261416556 17.45241920452661 17.418268863609637 17.37423427325377 17.323558239433112 17.276741589288008 17.243353002826296 17.22976353549453 17.243956581685882 17.298731909187232 17.405647325233225 17.56302243244255 17.748711772432696 17.92480729116602 18.05250357723498 18.10905170916661 18.098162141000643 18.048814154580427 18.001980675682614 17.98948616545306 18.0148191154654 18.048995480615105 18.04859959269179 17.987153412632384 17.877177331662747 17.76428128789856 17.696753520509066 17.69485533037183 17.74283925634361 17.805014011460894 17.84763644391086 17.849415892195925 17.799333616348687 17.691749717204285 17.52653819697059 17.31390443297964 17.078854208987433 16.860585454732792 16.704989285693404 16.6516726032133 16.719319808509802 16.895219774395347 17.1359215608129 17.382877690154128 17.587561907833322 17.7307376880487 17.821781330871982 17.87943138866601 17.91141902666981 17.910148003601474 17.865430825233776 17.78039349209464 17.676452986735285 17.584903939272486 17.533383344773224 17.53648946753519 17.5935502224334 17.691262113177324 17.808387696481443 17.921392727386493 18.010844649490647 18.06781976061755 18.097768929275166 18.117802597726225 18.145464921372042 18.184159943446783 18.216642407890454 18.214277724516577 18.156810082857962 18.047741395499756 17.913490365462902 17.786540731087094 17.684027654395194 17.596871222821107 17.498081786426393 17.365029405308935 17.199321996876773 17.029794237135107 16.89785460031875 16.83749227617549 16.863583298209967 16.97254936150182 17.149198662893784 17.371875553424715 17.614171191146408 17.84693562589779 18.043334865716474 18.18460717392517 18.2616319631331 18.270906658333143 18.20948448232206 18.07497793645393 17.87166704131823 17.617214669920887 17.343047200471535 17.08619783146676 16.877105432351787 16.731667848310344 16.653613189996385 16.644842283110073 17.05173127851879 17.