# vtk DataFile Version 2.0
Really cool data
ASCII
DATASET STRUCTURED_POINTS
DIMENSIONS 200 200 1
ORIGIN 0 0 0
SPACING 1 1 1
POINT_DATA 40000
SCALARS temperature double 1
LOOKUP_TABLE default
17.998743467684648 17.82811219985639 17.636945158046576 17.4335719701572 17.22894550901346 17.036495478647677 16.87110702564986 16.747129466713467 16.675671019945504 16.661814374276464 16.702614671447414 16.786679934218366 16.895764592718223 17.00823190127206 17.103640215695837 17.16727967008946 17.19339140581705 17.186110986779163 17.15782451494131 17.12540669685898 17.105451198821928 17.109875372317422 17.143097188735727 17.201428276238822 17.274615024399473 17.348837787262617 17.410143502575767 17.447325960736574 17.45363088603469 17.427180798847576 17.370462783746895 17.28941903905082 17.192574536320162 17.09033253054276 16.994265373800697 16.916105131449076 16.866262098237236 16.85199652086469 16.87567711719555 16.933714324076238 17.016666268329036 17.11070158753043 17.200183112252226 17.27077227845428 17.312283094669493 17.320591709710285 17.298188069651708 17.253323585481272 17.198036104219014 17.145540323891552 17.1075454259453 17.09203301238649 17.1019269228239 17.134915752821296 17.18444498036514 17.241608881813587 17.297426531729904 17.344885362961392 17.380238656492207 17.403315127517896 17.41692207269601 17.425663246812878 17.434570482372198 17.447877808219605 17.468130723191642 17.495710167867575 17.528799193242715 17.563804168138827 17.596204844766362 17.621716125994833 17.637523674046644 17.643274327640757 17.64152450141633 17.63748690281296 17.63811630821431 17.650755725903124 17.681660584077555 17.734716591592885 17.810596788408223 17.90650557808953 18.016552615835387 18.13268531011386 18.245985436587056 18.348030246943022 18.431984421945987 18.49317145768735 18.529066543248515 18.538884866390678 18.523096475966344 18.483190353187048 18.421827534665038 18.34325609908432 18.253654055602208 18.161036238905513 18.074527971813257 18.00308377181329 17.953972670180946 17.931450338607142 17.93596503228888 17.96405750783919 18.008911403566692 18.061370305558718 18.111193381095628 18.148357418017103 18.164282748029844 18.152909755532548 18.111547789114432 18.041371664264876 17.94741321267417 17.83795629870676 17.72340844044277 17.614915159309376 17.523075777565666 17.457025806821296 17.423908926573873 17.42852394881923 17.47286739090205 17.555463269357762 17.670684383890364 17.80852544311848 17.955304800659423 18.095490317664396 18.214372664916354 18.30086942306049 18.349564322196667 18.36128198538997 18.342002243660914 18.30050884053089 18.24558556390621 18.183655485758774 18.117513241716914 18.04637435327546 17.967047931024336 17.875761508648996 17.7700690675615 17.65032979400254 17.520409583364543 17.387486016004193 17.261083216091908 17.15166338883933 17.069188150553895 17.021993043317504 17.016115011023324 17.05497083755035 17.1391356549706 17.26600691427278 17.429348392656312 17.61896642455247 17.8209076296521 18.01847673924728 18.194082860155977 18.33158287569178 18.418579416174165 18.44814314548589 18.419629072902364 18.33851947952162 18.21543173958261 18.064532308310095 17.901626906271513 17.742198801740795 17.599657222484623 17.484016836729875 17.401141328574173 17.352570396461847 17.335858171354225 17.345314743954617 17.373046723079536 17.410189252993035 17.44817735924576 17.479839721442882 17.500079271674462 17.50599036071376 17.49644562469659 17.47138690333056 17.431166326227586 17.376242262093466 17.307361159592883 17.22613865822935 17.135788868194403 17.04169265994275 16.95154125325589 16.87490579171486 16.822230196880604 16.80339361784829 16.826109783867587 16.894490206214186 17.00807476237653 17.161534525190433 17.345114023883156 17.545744421647566 17.7486465005749 17.939153831802614 18.10442657629191 18.23472223897414 18.323978017233784 18.3696451903947 18.37194305403459 18.33286936477931 18.25533684891051 18.142697769903677 17.82408265498054 17.67225466455921 17.507781580932257 17.33620303008052 17.16525955108445 17.005242739601098 16.868452629832785 16.767564296641957 16.71308412092734 16.710506885459953 16.758069443644445 16.845978603161043 16.957637284473172 17.072805198846147 17.17199693522181 17.24095324684671 17.27389421063273 17.27455371576787 17.254640630157063 17.230168131818182 17.216758244522318 17.22532152547804 17.25933317057882 17.314358132212043 17.379738441562168 17.441710413970387 17.486880790246918 17.505050110785596 17.490769263051483 17.443563989763764 17.36722272761424 17.268730615643392 17.157305262015136 17.043666245123887 16.939357486761235 16.855817695386023 16.803015952757963 16.787757155174937 16.81205612030722 16.872127670144117 16.95846507148705 17.0572010400254 17.152565033077277 17.229905743787352 17.278560302982182 17.293881954502623 17.277964608098607 17.238937963827066 17.189040769175804 17.14192865192633 17.109803879577267 17.100971695061823 17.11834091498857 17.159193700825266 17.216258228370464 17.279780438175123 17.340012192313047 17.38942848413585 17.42411185614411 17.444050199380207 17.452451793504828 17.454442146545688 17.45558748477787 17.46060439490378 17.472453069028425 17.4918733067261 17.51735967821085 17.54556652996835 17.572123159474785 17.592774439834468 17.60464723728725 17.60733886190632 17.603505452629555 17.59873070933186 17.60064726866301 17.61748600464104 17.656367715884194 17.721697137011024 17.8139887262461 17.929379390784856 18.059976431525897 18.195036875520657 18.32277386500605 18.43238088821967 18.515747587824006 18.568402959996178 18.589482883155753 18.5808885760015 18.546109785979375 18.489270753443396 18.41476678777002 18.327492471948585 18.233316297385045 18.139314547304917 18.053404647949545 17.983331104404467 17.93528173041025 17.9125892236855 17.91494059501807 17.938321974722616 17.97567891995273 18.018078946216836 18.05608200033209 18.081055853924834 18.086271048145864 18.067707374906735 18.024547374143218 17.95931557172119 17.877595767477736 17.787294603041442 17.69754517317449 17.617499504651413 17.55532552595074 17.517619333384285 17.509200768135923 17.533028228750418 17.589915069875712 17.67792013287391 17.79162420501574 17.92178635287377 18.05590331077211 18.17990482954763 18.280718698615452 18.348970502722576 18.380892455137424 18.37872535062842 18.349432825192626 18.302169054907026 18.24537365053664 18.184441249422232 18.120638892920475 18.051478047407766 17.972287402217994 17.878419579491577 17.767412826433446 17.640504525948906 17.50311361939358 17.364215924225874 17.234854104700545 17.126260616525574 17.048143012758352 17.007551288712854 17.008463100663842 17.051909788929393 17.136276345522727 17.25744047112096 17.408650365828148 17.580339296095268 17.76025425217899 17.934219950037768 18.087593723930347 18.207143597204617 18.28288100754764 18.309395872371027 18.286435088709702 18.218707024412815 18.115063112177367 17.987263463098923 17.848517152496427 17.711962193566546 17.58924287794412 17.48933696434834 17.417756786496682 17.37619644909851 17.36264496266975 17.371948008496766 17.396765356194415 17.42880893335303 17.46015553807678 17.484353467204603 17.497053834086365 17.496032890159377 17.480692845199655 17.451330502306877 17.408536923522615 17.352997083711735 17.28575056078899 17.20876335075989 17.12554138650416 17.041516372598107 16.964019579016654 16.901774679087687 16.86395052219563 16.85890750641249 16.89284221611907 16.968572614005662 17.08469811051909 17.2353163666632 17.410396747178076 17.596812665463286 17.77992289956758 17.945465308663433 18.081409466311598 18.17936460202406 18.235215496245115 18.248870398921657 18.223279996646433 18.163102893730745 18.073454672853554 17.959077312578806 17.644714283798265 17.519548652740053 17.3893637458061 17.256528856950556 17.12521990405897 17.002273468090948 16.89714282571385 16.82065228458384 16.78264771818603 16.789120441627585 16.839723481272905 16.926628000472792 17.0353368960875 17.14748057419546 17.244961217896446 17.314308235276595 17.349942946366525 17.355312239036444 17.3414842368478 17.32360329746884 17.3162921018245 17.32941003545546 17.365414162812893 17.418994084182977 17.478888785940075 17.53112300673814 17.56255222644814 17.563676055183663 17.53010248691301 17.462618626465062 17.36629688094882 17.24925324098003 17.121541047114302 16.994334751578755 16.879241635039705 16.78744768345844 16.728507405405324 16.708846996972774 16.730318162731553 16.789281426060995 16.87664677251549 16.979071461141114 17.081188713232727 17.168426678148748 17.22977923468038 17.259873856567165 17.259849544685192 17.236850784680893 17.202269508917013 17.169141748373622 17.14927939252703 17.150772234359046 17.176423857175163 17.223481571652705 17.284702710798435 17.350436348003342 17.411110596690268 17.459420578432436 17.491658967112492 17.50795821956924 17.511577511109316 17.50761891385957 17.50161814915677 17.49834818158957 17.500995656661445 17.51072792421146 17.526619163047005 17.545929546998433 17.564760018690173 17.579067616850306 17.585907830491852 17.58462659171068 17.57764637559434 17.570543674694154 17.571293272069074 17.58878628569592 17.630924420760415 17.702698710974772 17.804675924550455 17.93226221835064 18.07599817550561 18.22294554963992 18.358951224667816 18.47127668905414 18.550887042071803 18.593734248072884 18.600689670284048 18.57627792922369 18.526816121295525 18.458743363103483 18.377739027046584 18.28877239358673 18.196744099719712 18.107117982292053 18.026014243238794 17.959569024707157 17.91276322323272 17.888183627804473 17.885202555201616 17.899878511825026 17.92560557768252 17.954300216272653 17.97779364495977 17.98911315172985 17.983446144081707 17.9587123660741 17.915753879323592 17.858166254521255 17.79177721139049 17.723800257291078 17.661784609805405 17.61260082583709 17.58173810244531 17.573067452818226 17.588978849198195 17.630575445808724 17.697569159742436 17.787733090585395 17.896130210667813 18.014641648016415 18.132356777852856 18.237089564857843 18.317766795248215 18.36694752811501 18.38254041064587 18.36801159222759 18.330934578884996 18.280368717781972 18.223978470360944 18.1658543057422 18.105690306579945 18.039480805332975 17.961420423884213 17.86637118420065 17.7521517008453 17.620998485078974 17.479807601398672 17.339122600485606 17.211200156331042 17.107746842839802 17.037982555452174 17.007514571520577 17.01816218989702 17.068500290890757 17.154660121479925 17.27094426165512 17.410059709301677 17.563101823383697 17.71963917462316 17.868230511710227 17.997471169161624 18.09736782825032 18.160656407315784 18.183699945664767 18.16678826050935 18.113877576444686 18.031936910098754 17.93007542715443 17.818562935771684 17.707800210356943 17.60728647748849 17.524656863588874 17.46489068985765 17.429802851342156 17.417923312573766 17.424840574832405 17.444018082009286 17.467977837286323 17.489609242144176 17.50327225475364 17.50539650782456 17.494452009741323 17.47041573546997 17.434056562711607 17.386401469227447 17.328610716901135 17.262261802122072 17.189847583885875 17.11522071727332 17.043767662890478 16.98220966567472 16.938036648057473 16.918651354851388 16.930341756397922 16.977226216280833 17.06033288391261 17.176976314021008 17.32057644486533 17.481027793895823 17.64566428655738 17.800763552742097 17.933390879525962 18.033232693196997 18.09398827092153 18.113951369385813 18.095633465234982 18.044578323072066 17.96775963462256 17.872034524624826 17.76303664924749 17.482567494670054 17.389017569956135 17.296932580237744 17.205398300822544 17.11498806529787 17.02908218487686 16.9542974529143 16.89962398657627 16.87428483864765 16.88485443018676 16.932565491274048 17.011808134035096 17.110520739281824 17.212585042808907 17.301664469286138 17.365392370166262 17.398615355668053 17.404621989869984 17.393895367683086 17.380729011956618 17.378755921123858 17.39679429438802 17.43627659459541 17.490959292968427 17.548832620652206 17.595456515196112 17.617585729151305 17.606017853711617 17.55703191645515 17.472372082955005 17.358215444808042 17.223759904518833 17.079945560928493 16.938504660357495 16.811221708249157 16.70914021548654 16.641523468398084 16.614592992246283 16.630300906924735 16.6855265532764 16.772067070310083 16.87762279033338 16.987715355854153 17.088200565066586 17.167836921772956 17.220313602403706 17.245251768598322 17.247937607383054 17.237849056144455 17.226318501175637 17.223870529677868 17.237853556322012 17.270927595480284 17.32076970541582 17.381037923433205 17.443274324375533 17.499154748148754 17.542422396576818 17.570009219823724 17.58217620759621 17.581841760770523 17.573475074818987 17.561947871404993 17.551602619071797 17.54561421295267 17.545602236404445 17.55144374104672 17.561313870333166 17.572057469252258 17.57998078853311 17.58201840489665 17.577031450563563 17.566840663134652 17.5565905056861 17.554201506505887 17.56893180896711 17.609328986809338 17.68102726022694 17.7849084287233 17.916109217997047 18.064229447355846 18.214860150053518 18.35220964179985 18.462228965404833 18.535376907073406 18.56818417584613 18.563143801886465 18.52706058446124 18.468573894585592 18.39584167017226 18.315198686156197 18.231072073702336 18.146829702378046 18.065856702270086 17.99216390046555 17.930174589573845 17.88379824551175 17.855243844163354 17.844114647628558 17.847169422517517 17.85884643580596 17.872368597842037 17.881085481326256 17.879696872184205 17.865111324256173 17.836845732746443 17.79698885279972 17.74979617730306 17.700982650950216 17.656796437913595 17.623026808067078 17.60418306578944 17.603085708846653 17.620969081271095 17.657944331923353 17.713455404661104 17.78633882110809 17.874329523072998 17.97323915625249 18.076352780014147 18.1746352487262 18.258035951042753 18.317650950245937 18.348008915244787 18.348560905174548 18.323696889153496 18.281184284960375 18.22955514328455 18.17536792241835 18.121280728241086 18.065535968260857 18.002952023731147 17.92704813305348 17.83262744685673 17.718055282838407 17.586583121233215 17.446345460117517 17.309034586383028 17.18764320969413 17.09393822181098 17.03638688036011 17.019063241767462 17.04168272893712 17.100500521465037 17.18954515579308 17.301658557077292 17.42906157030064 17.563511712126033 17.696367839035815 17.81889255578447 17.922922475393612 18.001765327522204 18.05101711566582 18.069021045473857 18.056867183985787 18.01802622198358 17.957805305732176 17.88278012001624 17.800254101045592 17.717708768027517 17.642189317160042 17.579613309881754 17.534063519710184 17.507194985813175 17.497926389454985 17.502573547859953 17.515496995564007 17.53017980936769 17.54047739751127 17.541678032463796 17.53105940917627 17.50782687834166 17.472582778784364 17.42666338517398 17.371688157704252 17.30949898920944 17.242431592166998 17.173692831856318 17.107592979082902 17.04947929215027 17.00535275090064 16.981245732953063 16.982470804811673 17.01284317389245 17.073965814656308 17.16466310282016 17.28065373694266 17.414558895396496 17.55633726965006 17.69420682550712 17.816029935239943 17.910997568369066 17.971288933636938 17.993289051232523 17.977999724454968 17.930494193912736 17.858562135017802 17.770934499088348 17.675563174834508 17.57835141527566 17.356345839641037 17.295872194056482 17.241422374982943 17.189005907080944 17.135914476395786 17.082417028792555 17.032587551541166 16.99378137360527 16.974701603380716 16.982547178589076 17.020167447735204 17.084259983317992 17.16537175041213 17.249890332925983 17.32353869861873 17.3753402320442 17.4007900288998 17.403153851491858 17.392386751887265 17.381944742224537 17.384481176635393 17.407803196627643 17.452361156867827 17.510995345629606 17.570886295656837 17.616947450500255 17.635518759508635 17.617278832444757 17.558721737789575 17.462130956280067 17.33447349841877 17.185850214246766 17.028041141388805 16.87339220836704 16.73398731083508 16.620889186820836 16.54326145586697 16.507346929194654 16.5154684955419 16.56534494070585 16.650025530546117 16.75863941654726 16.877957863675345 16.99453382774504 17.09698739063982 17.177918211024604 17.234986955609582 17.270902898219312 17.29232352900339 17.30793655847935 17.326191676835165 17.353238458304958 17.3915828918816 17.439789204331056 17.493254122705782 17.54575285841469 17.59122525783418 17.62524044407121 17.645763504840737 17.653155357650956 17.64961638234277 17.638413427707544 17.62317757986324 17.607392444402638 17.594024973457223 17.58518225961628 17.581741098475472 17.58304399618714 17.58688102025982 17.58997775425097 17.58904693873348 17.58219535459338 17.570242433085465 17.55743527542632 17.551186680491835 17.560759508010896 17.595147611466942 17.66064807707525 17.75873112723799 17.88479435412877 18.0282455070369 18.174085371782493 18.30576671814807 18.40866613625749 18.473190895559995 18.49654250792275 18.482559304055673 18.439750520398988 18.37832184504192 18.307346697813248 18.233078683331478 18.158811560950326 18.085977844977872 18.015688243740176 17.949858584137136 17.891414934494783 17.843587040485904 17.808725985181663 17.787241990562254 17.777136851684897 17.77431145481876 17.77351589409848 17.769602768804077 17.758698891289523 17.739006715177606 17.71110961262823 17.67779838064234 17.643511347571835 17.613501297194635 17.592862622950843 17.58560477723128 17.594010806581952 17.618491999179458 17.657987501774752 17.71070452877534 17.774790224574854 17.848522043701067 17.929851901744158 18.01553611969835 18.100410491724272 18.177417784645552 18.238691254452736 18.277467045839508 18.290110481012672 18.277367901449505 18.244213436642948 18.198235852210658 18.147122636528202 18.096157266461187 18.046611188569983 17.995547060638206 17.937048325760877 17.864451614630138 17.772899577037247 17.661478809538234 17.534337955361224 17.400457188979047 17.272108871870884 17.162424927582475 17.08275549858018 17.040560622457356 17.038380456651826 17.07403968905673 17.141810782134783 17.233972678035094 17.34218089984259 17.458303820209643 17.57473424630449 17.684454203135914 17.78117568708471 17.859709057072283 17.916464188352915 17.949839416229416 17.960286900963773 17.95001506751862 17.922469432957183 17.88180715506895 17.83252020401443 17.779227265433004 17.72653622058128 17.678838023231126 17.639936880524854 17.612521673180147 17.597597845027018 17.594083946574408 17.598789219885532 17.60689831364226 17.612908294819132 17.611762606696583 17.599813873948467 17.575303171275863 17.538258755221914 17.48998321858114 17.432465364409357 17.36802811942878 17.299331521405957 17.229616191952317 17.162937409606357 17.104164615810618 17.058660770550567 17.031707106552464 17.02781940527201 17.0500971522421 17.0996962086054 17.175466941637204 17.273776929521546 17.38853948654988 17.511485580264626 17.632732592102386 17.741695498985266 17.828326225928446 17.884546160812608 17.905592693813755 17.89091439375737 17.844299339492245 17.77312037926053 17.68685252150605 17.595235125426218 17.506522753439008 17.42619400106958 17.278365225241835 17.24906235384077 17.227856579500507 17.208187229901675 17.184712863936486 17.155247629459566 17.121866727428365 17.090644007718854 17.069907013325604 17.067456744300966 17.087654424128676 17.129414163680654 17.18588858330762 17.246084290797004 17.29798938849437 17.332254523272116 17.3452231786774 17.340254350311795 17.326801929396044 17.31745685795271 17.323865186125595 17.35283969300469 17.403919759649817 17.469122871711384 17.534873214572723 17.585385185936406 17.606384737776878 17.58808853654634 17.526766285406385 17.424780565596027 17.289486033543657 17.131600768015787 16.963601463655035 16.798440691975582 16.64860283728651 16.52534206547611 16.437930174223016 16.39284734807662 16.39299574578516 16.43713152564886 16.519750923301228 16.63161354661928 16.760947805711677 16.895192741598557 17.022948433500645 17.13570497587242 17.228945668083725 17.302370884389138 17.35921389784881 17.404848480909116 17.44506178870997 17.48444698167595 17.52533411331801 17.56751665343247 17.608773803533005 17.64591950767068 17.675944237503142 17.696839477271144 17.70789697265132 17.709544889596646 17.70297473814019 17.68983301770185 17.672111303082744 17.652167673027602 17.632675629360822 17.616306226412316 17.60510681140631 17.599767096604428 17.599135406467006 17.60035165677618 17.59976034290293 17.594427678741848 17.583769160584392 17.570659127066612 17.561516683654666 17.565189158478283 17.59084397772121 17.645391187255417 17.731116288022083 17.844197865978696 17.974629289228222 18.107760778102406 18.227242728009994 18.318668614321407 18.372863587845455 18.387747862069016 18.368123662671106 18.32348148217819 18.264685109794705 18.200811077022188 18.137274144337443 18.075737074606725 18.015501341297504 17.955496148421418 17.895872560547133 17.838555056837976 17.786674586978794 17.7433097246861 17.710190753236176 17.686935729309706 17.67108958836348 17.658890400526953 17.64643454699885 17.630829144219852 17.610997494472308 17.58797030092483 17.564660919019012 17.545227991579463 17.534174470928583 17.535360324079605 17.551145777439114 17.581906222348255 17.62610226556563 17.680909243529857 17.74315918969537 17.810159318973593 17.879964842148013 17.950943352223334 18.020867015157496 18.086093608501727 18.141443702837346 18.181080372796828 18.200176321031698 18.196681031452925 18.172345417365996 18.132430740838014 18.08409760224005 18.03405137213934 17.98632990286706 17.94103759457293 17.894442534086487 17.840367220391297 17.772412043847947 17.686350012732518 17.582022699092352 17.464212225431474 17.342223802319833 17.228247225162324 17.134907037647114 17.072660701915897 17.04776180469099 17.061323316293567 17.10964121442485 17.185512383025923 17.279982696683287 17.383921390183428 17.4890393485187 17.58831755318062 17.67608967809369 17.748087691417854 17.801611310128543 17.835754295354814 17.851480610189938 17.851379014286987 17.839094272101974 17.81861109845495 17.793638439388744 17.76727428959044 17.74197890888586 17.719736904546508 17.702215407522335 17.69074940174656 17.68608906683543 17.687986079482457 17.69481920076667 17.703502251879407 17.709838423826046 17.7092978792598 17.697984432865766 17.67344107876527 17.63500530143327 17.583644422990037 17.52145692294233 17.451165403812332 17.37586853231807 17.299107654190415 17.22507935934688 17.158726539611628 17.105512444050827 17.07085789277918 17.059383373274272 17.07416238217615 17.116155614213138 17.18391019063347 17.273531502231926 17.378894558339343 17.492055188259606 17.603836556302475 17.70458836619284 17.785123120804226 17.83779937486618 17.857635926237514 17.84323421333778 17.797228029672468 17.72603544509488 17.638864478409772 17.546150483542004 17.457770841679682 17.381420131248586 17.32145053400532 17.252535541230888 17.249909377386295 17.25474781368566 17.258631325357495 17.254454699424965 17.238444010657464 17.21138904238679 17.17853841859181 17.148011518380418 17.128134473533922 17.12456100309929 17.13818299428385 17.164603625740902 17.19542825785969 17.22101260599299 17.233797421575662 17.23111683268784 17.216482690754418 17.198808890390158 17.189719722595285 17.19975797045901 17.234718606153606 17.293311279708135 17.366896942838174 17.441329527586657 17.500245398708994 17.52874105318236 17.516387932057278 17.458899071629844 17.358295598605515 17.221892542295002 17.06066853109532 16.887563866775665 16.716047049738805 16.559039422831134 16.428109657440324 16.332794521142663 16.27995196922361 16.273154658657557 16.312233065309222 16.393137027521043 16.508275324470613 16.647404187723186 16.798985679108437 16.951778100920492 17.096321600566515 17.225990859656168 17.337402209457398 17.430138336523466 17.505929173608358 17.567556561603862 17.617806432121363 17.658758431616363 17.691572806676437 17.71673531304013 17.73453013355617 17.745429522213108 17.75017622074853 17.749551651125383 17.74404180409457 17.73369586648797 17.718363742004872 17.698259500837686 17.674566985306534 17.649713507367437 17.627045162856476 17.60990342866821 17.600412631619506 17.59849758483534 17.601644814313865 17.605669363756057 17.606338224556108 17.60130820933698 17.59164533262481 17.58229717506879 17.58124037654087 17.59746824217032 17.638352823061545 17.707113729367855 17.80113387590374 17.911697453956517 18.025401201164044 18.127030836354347 18.203189335390334 18.245592069272785 18.25291606161347 18.230516664552646 18.18809986330158 18.136244293957695 18.08311978487634 18.03261341652208 17.984409242511944 17.935704530505312 17.88360143800199 17.827065575546037 17.767697004419425 17.70918067127348 17.655853709602887 17.611112679917298 17.57632430369323 17.550595641181225 17.53137721323637 17.515576298985586 17.500738295660977 17.485913836354815 17.47199970402685 17.461527716020054 17.458009529537275 17.465015298591197 17.485200705608065 17.5195239606437 17.56689164592629 17.624388338443588 17.68805515897922 17.753940943839716 17.8189825592156 17.881302780244955 17.939777096675563 17.993109087962686 18.038963880919837 18.073747988775224 18.09332939849014 18.094489849330536 18.076455113393166 18.04171658572845 17.99563463672385 17.944867458556814 17.895209798110535 17.84968278055124 17.807589892868002 17.76485199819913 17.715472772353518 17.65365127338974 17.575923669496234 17.482755737454706 17.379163657180793 17.274171760975737 17.17919622739787 17.105730863957046 17.06292869405503 17.05573141511498 17.084044722825322 17.143120412932596 17.224907102389313 17.31983848989143 17.41847244471426 17.512591203081705 17.5957030222428 17.663159686020478 17.712179331163313 17.741931976030703 17.753629432347516 17.75042493215823 17.736961025803687 17.71857347799219 17.700345229747445 17.686292561124926 17.678912852769976 17.67916973190495 17.68681924219132 17.700865491194556 17.7199170129164 17.742297911815218 17.765917482341056 17.788054807338035 17.805293041215723 17.813786192038975 17.809868673498155 17.790812573573564 17.755424597026565 17.704236211815438 17.639251725399497 17.56345272865428 17.48036444205355 17.393901172887873 17.308485389867887 17.229226443603988 17.16188282426014 17.112443725774153 17.086366890084324 17.087674274807178 17.118156058118494 17.17687308555353 17.260040434947427 17.361281400811862 17.472187123550835 17.583097193834238 17.684018048325708 17.7656087720127 17.820174818254724 17.84260019873215 17.83110817335629 17.787689506772626 17.718024946964402 17.63079908553696 17.536452918237025 17.44558925577069 17.36734409657373 17.308024951044878 17.27022585341646 17.273901010571453 17.2920455802227 17.314507228121556 17.331785783047717 17.335944711950212 17.322548488156567 17.29186481564045 17.248803931732734 17.201447314191146 17.158540533546276 17.126751624233986 17.10862889607194 17.10197361055915 17.100866850980484 17.09803368299525 17.08777251338212 17.06845939591803 17.04372793859354 17.02181960712807 17.013196409266918 17.02711827696365 17.06828425038322 17.13465092440302 17.217150923862068 17.301386972445865 17.370730990787322 17.409860231898783 17.407740374159413 17.359378930257332 17.266152204416578 17.134948682660475 16.97662155060568 16.80426261774529 16.631660374371496 16.47209615704508 16.337461716707978 16.23759702600591 16.17974808390499 16.168102864780902 16.203444132365366 16.28302449133115 16.400787197812235 16.548004310963194 16.71429140152298 16.888831960490474 17.061567210957087 17.224117760808664 17.370294237510908 17.496178814719528 17.59986916886911 17.681044092767987 17.740528155975888 17.77999577333655 17.801859106509575 17.809252168900176 17.805921680390934 17.795845689086747 17.782555016690186 17.768361843207416 17.75386053055076 17.73803198274556 17.719039161985158 17.695463236492177 17.66747515466462 17.637403186292325 17.609370330452684 17.5880510435235 17.576982026398674 17.577097422641845 17.586134354375883 17.5992550170877 17.610758397040136 17.616300030586057 17.614801492609452 17.60931770641086 17.606495344508307 17.614737400851816 17.641603602421352 17.691206861684723 17.762384945500365 17.84825531560235 17.93742518714781 18.0166625262901 18.074327756348943 18.10349518065602 18.10366345440375 18.08037667417923 18.042851851947557 18.000519479293644 17.959842682336763 17.922641243258337 17.88646123953176 17.84663328422318 17.798985897152775 17.742022146082096 17.677743216410764 17.610971905974335 17.547653843913988 17.492937829445665 17.44978493548625 17.418526995414027 17.397374712916704 17.38354108917614 17.374500146416025 17.368951749989314 17.36724174831121 17.371193517189987 17.383466241006925 17.406644740765888 17.442305735508988 17.490316709554843 17.548593741594715 17.613438832274902 17.680385815044243 17.74526333726343 17.805046315096703 17.858118299986934 17.9038253967997 17.941565303643937 17.969935565075563 17.986489156463524 17.988360380312418 17.973551805756138 17.942263456615628 17.89754001013697 17.844793329352566 17.790287699169923 17.739170552789588 17.693836589191786 17.65324942490203 17.613436501234016 17.568942742807817 17.514753379425038 17.448127670172155 17.36987092820386 17.28473468253358 17.200829209910072 17.128147703405038 17.076521771702986 17.053504837726837 17.062738979802095 17.103245005568574 17.16979434184584 17.25416943914743 17.34684571182503 17.4385603020146 17.521398750654917 17.589329649483187 17.63837503955239 17.66668046899386 17.674626622149997 17.664915925926273 17.642429236406052 17.61367404805349 17.585814878439642 17.565480073339874 17.55766087883185 17.56500081906625 17.587634831910265 17.62354655961851 17.66924765783098 17.720506196567662 17.772889720723676 17.82202575629115 17.863655458306322 17.89367429481113 17.90834513240636 17.90473121954705 17.881212204152213 17.837839840684953 17.77634358290599 17.699785155504614 17.61206208239792 17.517533640305324 17.420933474080886 17.32751221135508 17.24316886628367 17.174301625040798 17.12724771568938 17.107392605563923 17.11818510071224 17.160327727230644 17.231338244713196 17.325565343553848 17.434646881810583 17.548339416043056 17.655611996112192 17.745873715851335 17.81019332027533 17.84237221716018 17.839743219270673 17.803578107733955 17.739003652295533 17.65437083832397 17.560113695879988 17.467256757039696 17.385830492622645 17.32347497287689 17.28444121623966 17.2690884