# vtk DataFile Version 2.0
Really cool data
ASCII
DATASET STRUCTURED_POINTS
DIMENSIONS 200 200 1
ORIGIN 0 0 0
SPACING 1 1 1
POINT_DATA 40000
SCALARS temperature double 1
LOOKUP_TABLE default
17.99401614044668 17.824796638041967 17.635289325018878 17.433813748827344 17.2312581496908 17.04091069304851 16.87743481812927 16.754906277443016 16.684168994171117 16.67012985720972 16.709827574431575 16.792048018457116 16.898898975852255 17.009199056471946 17.102952774382082 17.165769624961534 17.191996074339922 17.18563191452727 17.158730367903168 17.127737455415936 17.1088471364826 17.11371344515141 17.14668491393016 17.204191788847105 17.276226637494144 17.349254272097156 17.40955946562879 17.4460749953062 17.452080061306884 17.425656819707747 17.36922500471864 17.288667527600794 17.192464624388265 17.090969018179624 16.995667563535882 16.918157230812774 16.86867914027164 16.854335613920053 16.8774077279711 16.934336954835413 17.015847142196762 17.108381119446037 17.19662206427602 17.266518898417115 17.30806920492642 17.317186045385423 17.29624437261864 17.253257878874063 17.19995631823372 17.149238109365715 17.112548620002855 17.09770802497115 17.10761153507199 17.14005445360681 17.188694650110882 17.24488739872715 17.299892413894096 17.34685820964326 17.38208865118697 17.405356839319992 17.419340915701518 17.428487103947994 17.43768282831482 17.451059213294855 17.471114536520616 17.49824184493179 17.530691825468125 17.5649825334938 17.596728392310936 17.62177197975179 17.63738687569882 17.643242805894843 17.641845644676327 17.638295886518204 17.63940172792959 17.652358441541455 17.683302203472827 17.736048602135288 17.81126024297401 17.906191866615924 18.01505575496787 18.129935562394454 18.242055623591114 18.343112313743063 18.426343890448955 18.487096735590377 18.52283262115262 18.532743522397727 18.517290259757104 18.47797307875616 18.41746846877431 18.340012664705206 18.251715232256288 18.16045651502848 18.075179867111697 18.00465127095593 17.9559918647963 17.933385806943935 17.937299365632867 17.964370597195256 18.007933789687268 18.059006046323784 18.107517342006847 18.14359623726187 18.1587870842398 18.147119835659858 18.10594934612467 18.036439951850276 17.94355013347717 17.835435035876486 17.72234309109857 17.615264583227727 17.524674575406607 17.459621794882434 17.427186090501763 17.432104370922087 17.476306048684997 17.55826203762775 17.672346599264074 17.80865108074869 17.953699671205584 18.092245523770877 18.209873581263658 18.29571751751536 18.34443010732494 18.356736790563136 18.338385944663 18.297875833816946 18.243740159656692 18.182255835961474 18.116203442967223 18.044902451596187 17.965339309823992 17.87393465267073 17.76839738612787 17.649165851627856 17.520095626972317 17.38827618976758 17.263097325040093 17.154879963761996 17.073469378955913 17.027122177775748 17.021824524560536 17.060949242731795 17.14501821862948 17.271370671993026 17.433734970536825 17.621943740631302 17.8221596965513 18.017892093125884 18.191807754806334 18.328017798008833 18.41431914284019 18.44387935721523 18.41604199586494 18.33618102831257 18.214733566822243 18.065644681169235 17.90449044555806 17.746548382291646 17.605072995998206 17.489991953001898 17.407152894804344 17.35814205881911 17.340608136789047 17.348987857554825 17.375530151574978 17.411509333400844 17.448474616267887 17.479323606386625 17.498972927314018 17.504483098194584 17.494670600422552 17.46943187047269 17.42911075043176 17.374202417719804 17.305522021430164 17.224757841705447 17.13516898398025 17.042128634047184 16.953255342198474 16.87798521375484 16.826581685341434 16.80872628419904 16.831952368155214 16.90024174170685 17.013080802314043 17.165176374532873 17.34689643276387 17.54536702908745 17.746045360765976 17.93450274068811 18.09809557517015 18.227202424967878 18.315793404318047 18.361277288199307 18.363788005038735 18.32523322685499 18.248459725799233 18.13678968727163 17.82214819981742 17.671400793565788 17.508105854387505 17.33784415791344 17.168355052057436 17.009852491866674 16.874466980582596 16.77463120947485 16.72059368076411 16.717657564474212 16.764012775484456 16.850008538732073 16.95936969250499 17.072289682541985 17.16971931278288 17.237718835599367 17.27062028863296 17.27203121652152 17.25333760449845 17.230134487591055 17.217656859776678 17.22656826780279 17.260293864533505 17.314536164814587 17.37889614768116 17.43989563166005 17.484365798814316 17.5022199368586 17.48800869296643 17.44118323033419 17.36543598209417 17.267673303149863 17.15705882457739 17.044262192723885 16.940751240080143 16.857846174127285 16.805367819448072 16.78998396484745 16.813637474778925 16.872581295012637 16.957473073593544 17.054714127688843 17.148850523422535 17.225521006463484 17.274254995715637 17.29045228572252 17.276094554494716 17.239063427779122 17.19126501818237 17.14600530059678 17.11519060755176 17.106944869846576 17.124148269899113 17.164211000147947 17.22011115324442 17.28239973448219 17.34160908297386 17.390402367353165 17.424922983334707 17.445097500145813 17.45398809987056 17.456541134819897 17.458158047035575 17.463436744859912 17.475279150951906 17.494428773967076 17.519439999836216 17.54707154020706 17.573082809980445 17.593347485152666 17.60508805648559 17.607936172139528 17.604506607969384 17.600271142432252 17.60270317297413 17.6198608232523 17.65871393717776 17.72356842245029 17.814914198021956 17.928949498877383 18.057925848550166 18.191305439567287 18.317526371041797 18.425975054916616 18.508656498430657 18.561116791188105 18.582424491031556 18.57437131489349 18.540345208778692 18.48440896425757 18.41093690371652 18.324813612061167 18.231868901622143 18.139086293709983 18.054240998788764 17.9849196218536 17.937183702172504 17.91431132098688 17.916023869876888 17.938421443875875 17.974613757750177 18.01584595900758 18.052837489254227 18.077078384289294 18.081917846646398 18.063371376366305 18.020615028651818 17.956123098467625 17.87538603838439 17.78618453542211 17.697516539066775 17.618418910338978 17.556984578495378 17.51977381478994 17.511588255310986 17.535359017798385 17.591852645674848 17.679080601721427 17.791618998946216 17.92030983910057 18.052838181476833 18.175399315648384 18.27519258762343 18.343032626153402 18.375189596036456 18.37377339638009 18.345490126822845 18.299195198894708 18.243083229869715 18.18242805462515 18.118525261615886 18.04904204792026 17.969533381567203 17.87557772323936 17.7648739774689 17.63871326188607 17.50245258533675 17.36491524253803 17.236950200697276 17.129610940198305 17.052482743591504 17.012563459128476 17.01383172158054 17.057338202053778 17.141474393635107 17.262102932131516 17.41245463649695 17.582978870099254 17.761502535931527 17.93399943555398 18.086019982388606 18.204524534447643 18.279671680323933 18.30612577400073 18.28362998367164 18.21682164542185 18.11443143321045 17.988067004367366 17.8507708768688 17.715518905045943 17.59381665417073 17.494543167476873 17.423162923954656 17.381376982286692 17.367233844781133 17.375683007491496 17.399516883197702 17.4305851142445 17.46107837809155 17.484609788633655 17.49683594480449 17.495490776132645 17.479916402041695 17.450367163983103 17.407433748942832 17.351845861257956 17.284714911261073 17.208076408265462 17.125474888255244 17.042330686726125 16.965907225224985 16.90480901967762 16.868049192424103 16.8638179149991 16.898153642285152 16.973755670373944 17.089168160625935 17.23851360371598 17.411872014037023 17.59630440189518 17.777407895004462 17.941167278816916 18.075757879235045 18.17291105181206 18.228530376892145 18.242450270127147 18.217490805861917 18.158168683734136 18.069484376907393 17.95611241138948 17.64562790542907 17.521072794985585 17.391446106059192 17.259218697664007 17.128638068475677 17.006535581423933 16.90225368894371 16.826408872755106 16.788594915693047 16.794590801950253 16.843963455548668 16.9289799930167 17.035422438414876 17.145323886115243 17.241007056987836 17.30931958382695 17.34480348742922 17.350792398244653 17.33804447359618 17.321297012500764 17.314796202913545 17.328166978848138 17.363832320448214 17.41663718215728 17.475594720790134 17.527022503018056 17.557996131034507 17.559111480911362 17.525950402835637 17.459194847737596 17.363791190828028 17.247751826329 17.1210602985449 16.9948370083752 16.88062178739673 16.789501928575493 16.73090969207843 16.71115859885768 16.732043000134784 16.789960979865306 16.875971524783164 16.97697665929201 17.077903664041607 17.164458193896994 17.225827686415375 17.256698848296885 17.258115676444664 17.236988724410008 17.204383561708042 17.17298483534055 17.154302659458335 17.156241036805678 17.18157596634499 17.227690349353256 17.287603225633458 17.351980741699236 17.411540112638008 17.459168273534146 17.491218163204813 17.507758441108944 17.511900397113656 17.508567379744143 17.50313265780685 17.50025247920468 17.503053406828524 17.512698081296275 17.528305241885054 17.547220853007857 17.565660482414803 17.57970387802604 17.586508047976537 17.585467919668915 17.578979936471484 17.572515353291173 17.573881530296475 17.591773522991563 17.633909680111202 17.70515126027712 17.80602311270044 17.931999232228947 18.07379985536 18.218752923855284 18.353003916220253 18.464073010448928 18.54307667958953 18.585975319474155 18.593518625240424 18.570036302937027 18.521652509191096 18.454674532488028 18.374729004900367 18.286785828374956 18.195750363727427 18.107052793100937 18.02672886043553 17.960801864387726 17.91415505712484 17.88933507028247 17.885753565634563 17.899582131227795 17.924373024695484 17.952207304671198 17.97505269570444 17.986024315421684 17.98034403215404 17.955918663749177 17.913538701699917 17.85671651304947 17.791172397567887 17.72400194052793 17.662648284052587 17.613912084049858 17.583261686925553 17.5745870928316 17.590307843845885 17.63153456640289 17.697950770479554 17.78728404587562 17.89458063918973 18.01178277257013 18.128140426455026 18.23170200967137 18.311632653835222 18.360646528567237 18.376658598107838 18.362979733153633 18.32691432019166 18.277228080245568 18.221362856842774 18.163324575965596 18.102879541592674 18.036220602319496 17.95780173368502 17.862726245423822 17.748966013458798 17.61878047066986 17.478954853947346 17.339824029022083 17.213401370625725 17.11118444263258 17.04226879298516 17.012236825306132 17.022959595865508 17.07309427888429 17.158839955999074 17.274530756179466 17.41287845046009 17.56498741119491 17.72047055472819 17.867977676994077 17.996227004292763 18.095348262424512 18.158169683355883 18.18109977584485 18.164428219010745 18.11207645262804 18.030954641384916 17.93009417504959 17.819669827717362 17.709973590116917 17.610391181026536 17.528453853776043 17.46906349131404 17.433999614665474 17.42180956545952 17.428153363633204 17.4466081230821 17.46982560475076 17.490806911537184 17.503975887018022 17.505766386836974 17.49460562029743 17.470412369462526 17.433917016000947 17.386149294896576 17.32831255050654 17.26204747383376 17.189902459307014 17.11575499807654 17.044973930731018 16.98421982388651 16.940885959684618 16.922254247753315 16.934482772722045 16.98156898514244 17.06444904443019 17.180394471238646 17.322848359911735 17.481804598750553 17.644769537234577 17.798244486213772 17.929528701158077 18.028500976954305 18.088964925219457 18.109207322764316 18.091630751726257 18.04160586686645 17.96591928743745 17.871272002335694 17.763201004708087 17.485959466385353 17.392477416112794 17.300276873901844 17.208606704232928 17.118185065106584 17.032459874814585 16.95799631108032 16.90361160031042 16.878282196343985 16.888347790149112 16.93491218967023 17.012409236260893 17.109006368505586 17.20894944913303 17.296300606450664 17.359006590769283 17.392042780370804 17.398598852027853 17.38886234363164 17.376730759446794 17.375468670488466 17.39366792262249 17.432738056945002 17.486605825727235 17.54355195579199 17.589442607366085 17.61125881728339 17.599890724974937 17.551577265298636 17.467935084598572 17.35498809395205 17.221803776819197 17.079231900325443 16.93894190564464 16.812656923218043 16.71134135569271 16.644162949847445 16.617254320389947 16.63252072968042 16.68686994857285 16.772220024422566 16.876476918649995 16.985418421626555 17.085153041207075 17.164628364131076 17.217609154716715 17.24365342054946 17.24785240546443 17.239395638600623 17.22929522495476 17.227795306628202 17.242069260306387 17.274749800202667 17.32363975677852 17.382639903576617 17.443583771133678 17.49840876863863 17.54102691862371 17.568418336356295 17.580782883658024 17.580908181526752 17.573111463779057 17.56213051124272 17.552212611171417 17.546480174846693 17.546538824969407 17.552286601133808 17.561954304208324 17.572475351796626 17.58026614009293 17.58236762546225 17.577708559839216 17.56810618471636 17.55861453227127 17.556985517050496 17.572262518911415 17.612779129275314 17.68400768277884 17.786766328443907 17.91625811329886 18.062286012563696 18.210753235178103 18.34622441721819 18.454961529914204 18.527602725336223 18.56067763746826 18.556509113979235 18.52163185868146 18.46441296181629 18.392819484490488 18.31311203330117 18.229738936145143 18.146126531240974 18.065695919150603 17.992440308151085 17.930720314112733 17.88437521078151 17.855579848248613 17.84396721715227 17.846390498632815 17.857423119233317 17.87042701205313 17.87885971350814 17.877476393290785 17.863184054186775 17.835449777999127 17.796278008987894 17.749818668364988 17.701672881027086 17.6579835506246 17.6244650014845 17.605601912460678 17.604246349190777 17.621703176256894 17.658156364080163 17.713086801964142 17.78531545850127 17.872528010193893 17.97050142125418 18.072553446810794 18.169774575106644 18.25231036604417 18.311456619298806 18.341861813319905 18.342956284045155 18.31896148896293 18.277380373253536 18.226474226353996 18.172615635202913 18.118420864279212 18.062244171985494 17.999131385563892 17.92287451404848 17.828514098487943 17.714548333743434 17.58421791449481 17.44550491138017 17.309850886045112 17.189971345135845 17.09740644584716 17.04050302726826 17.023337036214713 17.0457213790453 17.104049831965984 17.19247449750692 17.303912552502855 17.430611980188587 17.564335040789604 17.69645371868404 17.818268246246042 17.921671583298753 18.0000267770433 18.04896594659418 18.06684412179939 18.05474715084422 18.016137765769876 17.956317085390275 17.881851396725523 17.8000191060743 17.71825034887551 17.64351073817733 17.58161992040083 17.536564233940965 17.509928427731747 17.500609145410685 17.5049594030221 17.51742912145195 17.531616947343466 17.54148314477111 17.542377563375606 17.531583099264555 17.508266463898824 17.472978434984288 17.427023145391438 17.37202439229422 17.309859853147568 17.242911269702674 17.174417658932303 17.108692082417434 17.051052247256006 17.0074433426915 16.983825051639894 16.98542921115603 17.01599038642285 17.077039966443444 17.167351086215533 17.282625377911412 17.415515791628533 17.55607270621601 17.69266612354619 17.813353514794965 17.90752700337436 17.967523737776318 17.98979826396196 17.97531052965436 17.92898998424588 17.85841874117569 17.772108223404608 17.677826880016912 17.581363969053985 17.361473591008853 17.30053716057562 17.245347460637895 17.1921294250524 17.138382043438067 17.084504911306208 17.034572798083495 16.99580025565076 16.97665024424898 16.98406792400494 17.020734507885173 17.083340792097086 17.162611231846032 17.245254293287942 17.317363318177126 17.368264029037782 17.39358415614666 17.396503390691006 17.386695914416254 17.37723310962219 17.380406671192567 17.40380185589891 17.447852144291033 17.505578590744857 17.564467396789095 17.609755703990402 17.628025552787335 17.610057987914814 17.55230754615031 17.45691987604032 17.330688876043702 17.18355996290887 17.027199874765984 16.87387835728829 16.735619001057515 16.623420473349253 16.546373305693432 16.510650532713633 16.5185330969607 16.567752323974833 16.651442454535182 16.75889053673508 16.8770774118921 16.992776603408505 17.094788987731448 17.175808569162566 17.233475488202625 17.270362635087317 17.29290323960473 17.309523917291514 17.328438930986753 17.35564670218879 17.3936245612948 17.441035369541517 17.49346959431395 17.544931918092537 17.589561790982895 17.623049658677807 17.643387484153717 17.65088495508542 17.647648909735683 17.63684716437503 17.62202978607903 17.60662329705095 17.593555827497372 17.5849078476082 17.581544266462544 17.582822311737342 17.58658594904065 17.589654087388386 17.588851446786897 17.582376211271935 17.57107509041618 17.559129171942217 17.55379069520675 17.56409641837532 17.598799855084913 17.664004264740573 17.761089652283477 17.885507912750757 18.026877390097198 18.170536946147617 18.300332552044786 18.401986814029616 18.466105161933147 18.489879721296564 18.476941307747534 18.43547197199185 18.37534633216784 18.305406799912465 18.231826169058007 18.157949954885883 18.085328534911405 18.015180123612726 17.94946800733321 17.891099893788056 17.84325252687743 17.808234794401834 17.78646081125112 17.775992547332663 17.772831220121027 17.771834906724514 17.76793777653486 17.75729892368914 17.738097777564278 17.71084776310437 17.678238486314346 17.644592857089638 17.615051267225088 17.594618356941325 17.58725806270606 17.595268622813247 17.619137052329197 17.65791462025407 17.709914312539023 17.773340309328248 17.846459810892533 17.92716619611026 18.012159189511 18.096275712707328 18.172546388892528 18.233260325114443 18.27181473898493 18.284662958130628 18.272511653270904 18.240165641819843 18.19496870895659 18.144374356406203 18.093525997423974 18.04369691903931 17.99209286700153 17.93303736035848 17.860133185196815 17.768738515672787 17.658042066831804 17.532148473800238 17.399854970200725 17.273159148340728 17.164901026272254 17.086201090189157 17.044409669492545 17.04209360447657 17.077211973631698 17.144219940088774 17.23556390274926 17.34300987073978 17.45847242860295 17.5743472673951 17.68360580875788 17.779955208333078 17.85820762225868 17.914770613865603 17.94802768373347 17.958407348640755 17.948100150625883 17.920554495511965 17.879955312841936 17.830836012409147 17.77784858972526 17.72560404230171 17.678454034699012 17.6401245006758 17.613206181053137 17.598615946692973 17.59522328678031 17.599846491384447 17.60773524788101 17.61348341719265 17.61212602118814 17.60006933388503 17.575557530458916 17.538584167101746 17.490408557286546 17.43299556075486 17.368674492404274 17.3001321128023 17.23063390904126 17.164238329634703 17.10578926422671 17.060602101331494 17.03390214734594 17.03015334169781 17.05241426776705 17.101812669396654 17.17718375729727 17.27489488247771 17.388879821142858 17.510919829836023 17.63122120288443 17.739327966423627 17.82534799528205 17.881354722762087 17.902691561675642 17.888828491488105 17.8434720378564 17.773821713783043 17.689124624972994 17.598887187192823 17.511172407866916 17.431342693662035 17.284235919737196 17.254030217214403 17.231604225977513 17.21064641595503 17.186063755553903 17.15584437174953 17.122102486372494 17.090797081365466 17.07002400747035 17.06731966936771 17.08684876445728 17.127477427235288 17.182488775730626 17.24116566816249 17.291831990525566 17.325421353044163 17.33840661714224 17.334069794720115 17.32159849109551 17.313212247216946 17.320203419592236 17.349165896497396 17.399623766186977 17.463779977708874 17.528375394901513 17.577965931563927 17.598541784114396 17.580443702643304 17.519917124678603 17.419190746074964 17.285436942825985 17.129198857973776 16.962817006936348 16.79915009771913 16.650616143733785 16.528411849491707 16.44174998223148 16.397052857890976 16.39718042918726 16.440882755019413 16.522704329056246 16.633514862846816 16.761705007961897 16.894900110598243 17.021870130243553 17.134217438253682 17.227451194285813 17.301204088212423 17.358565378829244 17.404725986177453 17.445299793375014 17.48476264926843 17.525413445624284 17.56710372723048 17.6077339423709 17.64425717282259 17.673775247169953 17.694335859524212 17.70523156209445 17.706857538985023 17.700366764639526 17.68738047761716 17.669879479944207 17.65021220461539 17.631027331963367 17.61495016564318 17.60397393593464 17.59875368918719 17.598151846326566 17.599383831884264 17.598914571243732 17.59393147232894 17.583916502124524 17.571712383714306 17.563596119895628 17.56818692623149 17.594392056646534 17.6488977824238 17.73386880467023 17.84551509459004 17.97403051565804 18.10510700620635 18.222801856984788 18.313070621720186 18.36694551497345 18.382331377599456 18.363800032318178 18.320480884962393 18.262874328235768 18.19980980317625 18.13663202600953 18.07509486933501 18.014677322174492 17.95448069456273 17.89475626874772 17.837438610408437 17.78560525846004 17.742267077799706 17.70911718801937 17.685788648089776 17.66988699133111 17.657729358552274 17.645476399079023 17.63025920204382 17.61097479092841 17.58858261015302 17.565894608205483 17.54695649988857 17.536166991303674 17.537312488297168 17.552732089008774 17.58284630818258 17.626222319347495 17.680174327187782 17.74165887427266 17.808048743381608 17.877386561437355 17.947968579723476 18.017488155106605 18.082274247408346 18.1372000371621 18.176547374057815 18.195615917319582 18.192418014159976 18.168655007922823 18.129428679556767 18.08168444552136 18.031937894049463 17.98413475479619 17.938420295314646 17.891225569847858 17.836609709683604 17.76841556931244 17.682596374538537 17.57905946172053 17.46251425620843 17.342066511231288 17.229627038649383 17.1375339455874 17.076027094894798 17.05126707008449 17.06441434167731 17.111924075089718 17.18680349192176 17.280293425576893 17.383396448174114 17.487883040301483 17.5867373804347 17.674268487580196 17.746176408322363 17.799726102619246 17.833967930252363 17.849810822020764 17.849785844297667 17.83749668718526 17.8169224571297 17.791808399990085 17.765319339210105 17.73998757393886 17.71784609949208 17.700566006086014 17.689437445857394 17.685131485571688 17.687315393455417 17.694311026792008 17.703025587575134 17.70930757467711 17.708702960783192 17.697387364904564 17.6729416806575 17.634697639072538 17.583587360088387 17.52167227070983 17.4516588770351 17.37665474141058 17.30021939091975 17.226553177783295 17.160572363763407 17.10768421755675 17.07324036531276 17.061800255547308 17.07640078383189 17.11799664509907 17.185156715264622 17.27402856178815 17.378542788074835 17.49082087092181 17.601762835036663 17.701809766729358 17.781879908145342 17.83444174692192 17.854605223105878 17.841013153772035 17.79626403354248 17.72665446487024 17.64119953367228 17.55010509916507 17.463025720410947 17.387479305892082 17.32771706652632 17.258080855780815 17.25425337365568 17.257595198690034 17.259945679632402 17.254460934065133 17.237557666254165 17.210083120663704 17.177187676136572 17.14676953639946 17.12689060603685 17.122995418039707 17.135901499426783 17.161304875654533 17.191044190686007 17.21577110694689 17.228181040352926 17.225725880927445 17.211845191245303 17.195201852928754 17.187066220589486 17.197639865017635 17.232503392816998 17.290349708050964 17.36272321256314 17.435798063233054 17.493565340890527 17.521408872155384 17.509053056961342 17.4522140466779 17.352797099636014 17.217938433361958 17.058430643304877 16.887057610355004 16.717173079333215 16.561618085133308 16.431900024398292 16.33750033288135 16.28522333202012 16.278596201675693 16.31742695264961 16.397683358743002 16.511844306454663 16.649786877827218 16.80012691936753 16.951778940418816 17.095407981843625 17.22445637372303 17.33554060407968 17.428183801099454 17.504019545608802 17.565727876776634 17.616017832299825 17.656936083294994 17.689653899758582 17.714693246754187 17.73237181894527 17.743171384839684 17.747817949636296 17.747067775374667 17.741399542189093 17.73089041336643 17.715449800438535 17.695357671242636 17.671835613548353 17.64729447123715 17.625007145248453 17.608211199377987 17.598942460217717 17.59709933787022 17.600228379788074 17.604277793985606 17.60517121361594 17.600678211463293 17.59187634185072 17.583599655463715 17.583604958202592 17.600614073146918 17.641749841806448 17.710078985202806 17.802984098284195 17.911923718292876 18.02381842670849 18.1238513200392 18.198983856806183 18.241136658980974 18.248967314141172 18.22759292089731 18.186349437266777 18.135448732234355 18.082823648095847 18.03231982197808 17.983758196936108 17.93456802582983 17.88207351230896 17.825372620164455 17.766081284239558 17.70780950767143 17.65478435810081 17.610313331138357 17.57572886328313 17.550161412920737 17.531120140622 17.51557253496617 17.501096073330608 17.486729555529244 17.47331416640308 17.463294449270926 17.46008178605348 17.467155102589704 17.487111704047383 17.520906153711252 17.567507966251753 17.624123305920467 17.68694173019138 17.752139595786392 17.8167161920007 17.878773363181867 17.937102231909336 17.990309698568126 18.03600910122359 18.070632181615224 18.09013643987867 18.091404083436853 18.07370619164304 18.03948200292875 17.99394834346236 17.943581488576775 17.894030091294777 17.848265903119344 17.8056627330636 17.762311651704312 17.712436001942176 17.6504420059547 17.573004004548626 17.480617726560016 17.37820677741333 17.274595479566464 17.180936615807326 17.10846188172414 17.066131793655366 17.05881553823757 17.08648077228004 17.14454862564676 17.225186650851665 17.319032298530963 17.416785510752735 17.51029492111248 17.59307452703357 17.66044808513037 17.70959198891711 17.739625555716334 17.75169576610282 17.748874603066742 17.735717092289626 17.71748700409631 17.699234165304627 17.68499308627862 17.67732508726632 17.677281144701038 17.684697729289983 17.698625745971487 17.7176740526941 17.74012685625089 17.76383651060658 17.786038373234994 17.80330813133843 17.81183240800727 17.808000425067547 17.789131458231548 17.754047309045138 17.703257646036263 17.6387248951809 17.563395082240973 17.48078202423409 17.39481005988884 17.309911911729696 17.231182054692443 17.164326060135494 17.115249799328005 17.089321173892163 17.090493668547474 17.12053040432048 17.178513278390696 17.260721162226844 17.360871384306343 17.47066495298378 17.580554750556402 17.680655512563735 17.761724723332357 17.816151786129243 17.838881757901643 17.82816171992664 17.785952194684242 17.717838462409297 17.632347354888875 17.539719646139332 17.45034701007348 17.3731768906313 17.314378491331357 17.276477889370646 17.278171849645343 17.294970214167773 17.31587333040977 17.33162590064444 17.334536599753367 17.320348664962047 17.289383686888932 17.24645912620052 17.19944689914761 17.15684006728706 17.125101738037714 17.106696179722224 17.099491352460714 17.097762349765315 17.094486713614447 17.084181436768098 17.065321282323893 17.04146904979816 17.020633072707522 17.012945972991584 17.027346921658694 17.06832987668297 17.133832121451604 17.214960698954574 17.29763169217554 17.365575029570245 17.403772651317723 17.401372655029977 17.353419928022486 17.261204101697807 17.131450584796223 16.974825380388197 16.804248651565395 16.63337220895853 16.475376727847326 16.342079343732326 16.243259053787497 16.186106707178993 16.174761813687365 16.209975160669398 16.288998606567674 16.405818276726805 16.551795286255746 16.716669663392302 16.889763292235806 17.061145090848747 17.222533037633028 17.367795143812227 17.49303189410901 17.596329268307592 17.67733760170184 17.736848591562552 17.776505225449768 17.798685586659474 17.806475362042402 17.803549117683517 17.79379324779435 17.780651131660285 17.766387494955556 17.751618903688357 17.735422816789338 17.716105006214033 17.692383586300988 17.664505887423015 17.63478257945156 17.607228591345553 17.586361211203556 17.575575552357723 17.575742457342916 17.584648058633345 17.597604418366238 17.609106025404255 17.614971445849694 17.614182886893822 17.60971883715865 17.60802482113442 17.617231407537687 17.64463142613062 17.694155403823093 17.76460466055788 17.84923281535076 17.93693459783785 18.014844269721582 18.071657547351776 18.100640186688807 18.101267293577823 18.07884998031354 18.042249903596705 18.000555566711174 17.960028533059813 17.922491762935618 17.885677003537275 17.845191126904968 17.79711428199519 17.740088590266453 17.676111985884983 17.60989108373322 17.547207378395175 17.493065594691142 17.450347540802444 17.419380800139052 17.39842678096797 17.38476822142467 17.37593277189467 17.37063544714516 17.369193248689257 17.37336549393748 17.385730109989534 17.4087964929849 17.444096501097484 17.49150475650324 17.549006491802196 17.613025055523952 17.679235718797358 17.74358288456267 17.803090745620654 17.856110242705164 17.90189359249328 17.939732771161186 17.968162230352934 17.984744850064732 17.986685959943557 17.97207083047824 17.941133598754032 17.8968678067038 17.844557875974388 17.790315495851388 17.73917755643322 17.69352069482744 17.65239534958383 17.611994146791414 17.56705525749416 17.51273082499534 17.446376944788568 17.368799935673625 17.284651496592957 17.201858123795617 17.13018327004037 17.079236345400876 17.05641271608073 17.065302991997168 17.104995688221805 17.170425684623755 17.25358343969068 17.345138412793755 17.43596505388441 17.518216164223094 17.58587112975884 17.634930945633023 17.663505974699735 17.671929819764458 17.6628376928197 17.641017365098875 17.61286492561845 17.585437216933933 17.565286643901402 17.55738162932411 17.56440117386517 17.586560620350834 17.621942207811582 17.667144506899675 17.71798922184582 17.77005917435126 17.81897145643116 17.860454038446804 17.890406458962413 17.905117833204194 17.901686396046923 17.878512317206322 17.835636115599733 17.77474526369655 17.69884825867384 17.611803303034108 17.5179576962308 17.42205231850779 17.329339172661015 17.245686769377908 17.177420570739717 17.130775007733966 17.111031305103506 17.121564243543105 17.16305501739677 17.233060594124073 17.326023867437446 17.433717369490523 17.546053744743208 17.652159450457155 17.741583900063294 17.805504130502477 17.837786634204257 17.835777811478653 17.800705804603155 17.737595256094394 17.6546434398841 17.562096620321075 17.470783577170767 17.390558777289066 17.328927759869647 17.290061084572944 17.274298375953986 17.332202692048945 1