# vtk DataFile Version 2.0
Really cool data
ASCII
DATASET STRUCTURED_POINTS
DIMENSIONS 200 200 1
ORIGIN 0 0 0
SPACING 1 1 1
POINT_DATA 40000
SCALARS temperature double 1
LOOKUP_TABLE default
18.04967111471044 17.864097212711837 17.655292021004584 17.431614524894815 17.20461159472355 16.989166855573092 16.802581011662937 16.6623022553183 16.582521759682276 16.570445026969555 16.62343118504677 16.72813858890411 16.86231708338315 16.99911368930394 17.112951751854652 17.18544851692415 17.20966662144992 17.19137614068803 17.146878658440897 17.0980323840903 17.06600666777557 17.065642517683315 17.101995957074436 17.16984922539114 17.25600481070388 17.34335959789209 17.415338394973368 17.45935936768033 17.468551790173287 17.4417184932275 17.382192900457408 17.29648852983576 17.193391820437434 17.08359136931186 16.97941477404836 16.894058569160062 16.839934802077714 16.826271251601188 16.856614257320334 16.927137434496696 17.02653048652995 17.13777357329266 17.241479417087554 17.319954886045036 17.36090114532027 17.359811241429906 17.320552493986256 17.254145640577807 17.17617463390887 17.103475145257036 17.05077848140592 17.027924303105877 17.038162527702386 17.077915554528634 17.138097381582508 17.206684988122138 17.271838997249603 17.324676023108065 17.360934670442393 17.38120476549279 17.3899000992238 17.39351126703381 17.398747666897062 17.411006478060813 17.433352544716705 17.46602065499493 17.506421325343705 17.549675048384337 17.589692808500246 17.620691346600054 17.638828049383005 17.643497207581557 17.637865718110177 17.628453473340528 17.62387409820249 17.63309328102457 17.663639428753818 17.720128515116958 17.803332529793803 17.90991222822694 18.032861722865658 18.162623972288785 18.288688959667414 18.40131028574043 18.492874919791948 18.55854153496882 18.59604370222939 18.604924290166498 18.58573162189403 18.53969982106781 18.469130617432963 18.378244397368256 18.27392705339816 18.16576779855755 18.0650856039441 17.983109898580874 17.928861629223285 17.907391187706185 17.918854470262726 17.958578967392217 18.01796237797782 18.085872059487755 18.150198217951306 18.199316029944917 18.22336030921121 18.215325372850614 18.171998915484636 18.094616369758324 17.988984656562856 17.864834297000545 17.734399853995754 17.610591177990017 17.505344168388287 17.42862236960527 17.388113427018933 17.389207795970776 17.434690145810308 17.523850688998902 17.651274962476613 17.80605076201314 17.97222455365866 18.130941241288987 18.263969650802675 18.357599026605747 18.405560173219445 18.409883523669357 18.379368910832707 18.326255079401545 18.262309195796234 18.19564242628948 18.129134070713942 18.06068806280389 17.984963288875846 17.895888793079273 17.789203184215964 17.66436598569619 17.5254075849606 17.3805779201287 17.240983380358884 17.118687248559628 17.024880595866367 16.96862467920006 16.956338711418304 16.991803493849282 17.07619331855883 17.207707773756916 17.38074738818988 17.585051768494854 17.805491343875744 18.023071881192273 18.21722025043916 18.368845171146184 18.463331821824863 18.492693995941714 18.45647728371841 18.361428279751745 18.22020321763154 18.049444729675983 17.86751795212932 17.692186965452553 17.538543421427562 17.41748956004377 17.334960144316945 17.29187690830247 17.284678783069182 17.30624564211648 17.347103551291575 17.39684911657427 17.445668547188628 17.485682709191682 17.511759941723305 17.5215357331961 17.514668542259653 17.4916980731271 17.453053522816067 17.39867036589254 17.328369287901154 17.242806319074298 17.144588575591513 17.039124814301914 16.934892091551898 16.842963479127942 16.77580886410944 16.74554351687957 16.761944335950798 16.830637504175332 16.95183851070325 17.119899524967423 17.32374933408255 17.548162197733372 17.77567842747654 17.988888802888777 18.172672276289724 18.315899899422128 18.41219200870614 18.459589456028702 18.45938306345024 18.41463961894036 18.328999899564312 18.206102284877897 17.84398370713039 17.68084839015224 17.50407133219584 17.31864304335971 17.132174954119566 16.95568156084107 16.803283687178915 16.690407521051156 16.630585997137725 16.63163900473608 16.692474939981796 16.801764761718374 16.939260879705333 17.079735517349473 17.19865579601167 17.278062016038447 17.31090198830386 17.302432181123116 17.268173260260287 17.22902176951095 17.20505084291943 17.20991823352012 17.247509891560103 17.31162735954808 17.388504280478756 17.46107364915506 17.513481136029345 17.534470945584204 17.51888239953946 17.46732152498281 17.38474552629399 17.278920460891282 17.159419863635723 17.03723949612721 16.92457554341605 16.834143680500766 16.777666670295606 16.7636585985617 16.795110706341983 16.867910063413056 16.970705484232038 17.086526223185086 17.195912690037545 17.280831523942595 17.328390593872825 17.33342578963571 17.29936363075083 17.237233282996417 17.163138856939163 17.09479285510989 17.047837772028252 17.032693033766126 17.052589699808546 17.103264194877386 17.174427392087612 17.25264229776844 17.324795834693926 17.381153888174424 17.41716654414233 17.43367445099611 17.435730532145755 17.430642184103974 17.425921201579765 17.427639379315824 17.439391763330498 17.461846663865266 17.49279922852553 17.527699140287112 17.560666692847654 17.58594148685767 17.599527412197816 17.600618613293104 17.5923527296142 17.58159995256936 17.577792142154774 17.59107771541909 17.63023275562465 17.700749457307754 17.803437375048095 17.933795823147292 18.08235412471558 18.23605713046966 18.38053011017307 18.502729353371862 18.5932360033635 18.647473491143263 18.66549936990337 18.65061006120669 18.607509167873904 18.54093615696326 18.45533070508774 18.35548701041472 18.24758020787448 18.139741861651615 18.041619155253702 17.96290018360273 17.911308702691535 17.89080464023147 17.900604269496288 17.935279756277012 17.985813281174504 18.04122348532484 18.090312406212497 18.123178588754744 18.13233423767344 18.113446096937366 18.065787802657944 17.992411904143264 17.89991084153604 17.797605208263317 17.696178699538073 17.606088589541955 17.53627733422371 17.493587624838533 17.482861417436926 17.507252652147372 17.56813358702349 17.66427072363209 17.790535077433034 17.936936056915172 18.08888723982485 18.229199548900542 18.341516006668698 18.414131073812836 18.442784623328507 18.431306199811726 18.38980534144793 18.33106931684302 18.266481224317346 18.20284002944889 18.14100044815202 18.076542185812915 18.002041187489 17.910131332919512 17.796438361085723 17.661588000656916 17.511783440419425 17.35786070641234 17.21317729042487 17.091036200698333 17.002455852702205 16.95489589397807 16.95209977443699 16.99470972820061 17.081000205809566 17.207137824825395 17.366789985649593 17.55043695237662 17.745069204630003 17.934860946294204 18.102947490620142 18.233879164110377 18.31600558898542 18.343119123408847 18.31505173615376 18.23731351464134 18.120066320113445 17.976711611516315 17.82226653022373 17.671650693038057 17.53804112210603 17.431498615759537 17.358044157392253 17.3192707778133 17.312488083549994 17.33136806750662 17.367061798214777 17.40970366504665 17.450074918999903 17.481034763454026 17.49829130946719 17.5002744208866 17.48723609341276 17.460049106676188 17.419293466942495 17.3650387080281 17.297362742030575 17.217311307906904 17.127860226481527 17.034510049617108 16.945314071266637 16.87030170056354 16.82036864441745 16.80578630706826 16.834557999419033 16.91090237621537 17.03414274196393 17.198222030034756 17.39197960176813 17.60024094369671 17.805663736713313 17.991114278322854 18.142131784283627 18.248883212249332 18.30706297857635 18.317506326642064 18.28474499757146 18.21509993246512 18.114982281620986 17.989855895947723 17.632845537398573 17.501653727343214 17.366159874907222 17.227483939832286 17.088824570077055 16.956897579623497 16.84229941854557 16.75821986932841 16.71749159100195 16.728705413446065 16.79267149109012 16.90058271944913 17.034787132277543 17.17226644548558 17.290019694211242 17.37084630149168 17.40775548157294 17.40554455877254 17.378948101244127 17.34789137367773 17.331360948987626 17.34184542539326 17.382037112866165 17.444647665403263 17.51511510481774 17.576064151651092 17.611938345529538 17.612379978208324 17.573595475126435 17.497811925346852 17.39161836051966 17.26419713306208 17.126140656084953 16.988948685802225 16.86477783748233 16.765847141532888 16.703134917950237 16.684457798751694 16.712446714002404 16.7831350988789 16.885787702579712 17.004273056596425 17.11983416436791 17.214682261440306 17.275563787946336 17.296423347475013 17.279514911612434 17.234714880490987 17.17722334798783 17.124182204693497 17.09094102082153 17.087773061974055 17.11778899227425 17.17657964118311 17.25371288543842 17.33567933001217 17.40941577693795 17.46535650160787 17.499177674170596 17.511917920911387 17.50873435312925 17.496935169453415 17.483989267496515 17.475996149811927 17.476775804168135 17.48749578310124 17.50669344754814 17.530643724747616 17.554133862937128 17.571698336369177 17.57919744268976 17.57538402611129 17.562959681964863 17.548694700924166 17.54245925889996 17.555347563274992 17.59731442828935 17.674820947764022 17.78895381730936 17.934425980589197 18.099797885324726 18.269098984494327 18.42469698850777 18.550801609060763 18.636608468992407 18.67805367476993 18.67759248364101 18.642198121137124 18.580524171880793 18.500480803203228 18.408159225559306 18.308270017971395 18.2054678730913 18.10554518926756 18.01566202067973 17.943377366397225 17.89489127715795 17.873267555553554 17.877361318300245 17.90182864659644 17.938162459151236 17.97637015021268 18.00678057928225 18.021543726326048 18.015598741141723 17.987118233980564 17.937562884435696 17.871444037743693 17.795765706117187 17.719065320683775 17.6501082674888 17.596549029892195 17.564028572226352 17.556035252871688 17.57443414415718 17.620128736575655 17.69318545581339 17.792072364990737 17.912287125842703 18.045209544140967 18.178150605986573 18.296142360002623 18.38519160870584 18.435912411504685 18.44609581392118 18.421096157436 18.371782511385607 18.31079522774178 18.24848288504364 18.189916871874072 18.13386908549511 18.07390025014256 18.001057233438416 17.907286873820457 17.78856357935765 17.646860483508952 17.49043033875441 17.33234773520466 17.18778661239524 17.07089850173737 16.992256254737722 16.95756748804137 16.96782520117687 17.020474551638817 17.110810625240596 17.23286883138755 17.379503983752944 17.541929563270006 17.70936537930725 17.869396695913295 18.009223332800975 18.117454872584027 18.185815357172533 18.2102089461366 18.19095515027916 18.132361516717943 18.041949210461937 17.929562512373206 17.806422278487304 17.6840882471872 17.573326481670804 17.482969573041103 17.418919283452578 17.383448029819117 17.37493988092212 17.38819450413939 17.415362626139245 17.44743480587704 17.47597939920735 17.49463722553315 17.499884511945876 17.490838717220214 17.46830038983685 17.433568010298217 17.387625282499773 17.331047216916946 17.264567721263568 17.18994122111383 17.110663916288228 17.032266656063964 16.962102031871346 16.9086917157427 16.880749076047575 16.885999842013863 16.929940884822138 17.014704937663673 17.138211476610582 17.293773889605124 17.47031517481593 17.653314422634704 17.826517099804438 17.97424574183366 18.08387502174398 18.147826424906476 18.16446545967648 18.137612118726267 18.074872771344836 17.985407994058885 17.877855535754918 17.75892368436059 17.442963414627 17.349514480304872 17.259774121488594 17.170857965164593 17.081496181853264 16.994087320186527 16.91569860809827 16.85729175738316 16.831041902940093 16.84642255257202 16.90635920987899 17.00489577978134 17.127401749279237 17.253538443555094 17.362278994424862 17.437529913247303 17.472581348467685 17.471873294827095 17.449385748172915 17.42409230577993 17.41393983336957 17.430321911287685 17.474798166817962 17.538973474712925 17.607333491356343 17.66186679381225 17.68683500967826 17.672219388874964 17.615062131410465 17.518812913246347 17.391489698494517 17.243680369237545 17.08711458418355 16.93395619644394 16.79645751181631 16.686436910476537 16.614225333121034 16.587111145043824 16.607672492920784 16.672566339039943 16.772301158368595 16.89229285462658 17.01516232495279 17.123867351298575 17.204976765029222 17.251293082201006 17.263161952127835 17.248133986125033 17.2190522610659 17.191002704226985 17.177812708396033 17.188897396066064 17.227218397216685 17.288898389240998 17.36461073101849 17.442325622444265 17.51054681394954 17.561034141756387 17.590260889980378 17.599381107296505 17.593024828366268 17.577558549289545 17.559444911714 17.54407978211149 17.535155244711408 17.53437755195531 17.541357390622842 17.553650889375557 17.56711736603029 17.57680429258812 17.578392322498377 17.569911867737147 17.553174485463533 17.534331162174798 17.52321573280179 17.531526178205286 17.57024337985777 17.646865539442917 17.763061839483836 17.91330310197353 18.08493823528468 18.259980472123917 18.41845912408371 18.542624262662475 18.620800826961727 18.64959851678666 18.633678078184353 18.583217504039492 18.51017604561827 18.42491556444874 18.33444685231828 18.242681624858072 18.15207906476263 18.06550239598545 17.98719499851757 17.922406309984158 17.875947530416198 17.850445005625925 17.845108793835376 17.855520773488298 17.874487995605914 17.893617895154467 17.905081495319717 17.903068547153186 17.88464889692495 17.85001552279102 17.802256085204135 17.746806701109413 17.690640768583457 17.641190895459346 17.605106455888137 17.587158609558855 17.58971472563729 17.61303376758771 17.656208019671265 17.718150017674926 17.79791291762308 17.89397975051506 18.002808729210983 18.117506638640833 18.227649124278507 18.320827008351248 18.38564940839331 18.41510783417323 18.40885978155077 18.373349575644085 18.319589825233574 18.259418296213042 18.20163349209306 18.14936498334935 18.09947125997201 18.04401117796774 17.973213992171612 17.87902080083071 17.758187334022463 17.614083811016915 17.45667519211132 17.30067077475038 17.1623823459384 17.05624426002164 16.99205093064465 16.973682549244362 16.999506010351062 17.063992545440158 17.159679348255207 17.2786210724348 17.41291249619498 17.5544659457779 17.694645375376655 17.824358495263294 17.93482507622505 18.018753104897634 18.071389287238855 18.09101116847225 18.07877659742314 18.038174460176812 17.9744200716272 17.893997274935145 17.804321488253485 17.713357538328584 17.629039694917445 17.55845706297994 17.50689799395117 17.476945955833646 17.467880873108975 17.475648455422714 17.493567560916542 17.513721528302955 17.528682903668635 17.533009006964544 17.52398071357391 17.501375362253963 17.466517638496477 17.42118042016658 17.36691319917114 17.30506496806264 17.23735000902201 17.16653856051229 17.09686717573545 17.033981235659354 16.984458714099354 16.955080140529297 16.951996483460615 16.9798867865314 17.041164497094872 17.135297157212275 17.258324141929577 17.402679619149623 17.557456661487404 17.709262764257048 17.8437538029046 17.947737863865303 18.01144943260783 18.030362213439904 18.00591967133428 17.94488294123278 17.857492039845646 17.755044350274396 17.64760546120828 17.542379130894652 17.2972996216381 17.24286783691307 17.197822554876964 17.155593870902443 17.11088824142964 17.062240160212326 17.013553075812535 16.973784858468274 16.954536880950332 16.96616011236249 17.01368378332929 17.09406716836855 17.195891297013464 17.301809421204158 17.393147804645384 17.455282516619263 17.482056626401793 17.47770217002769 17.455492463110918 17.433455044060555 17.42852368710391 17.451076345237905 17.501652253547952 17.57082776551672 17.64209373650046 17.69657172346183 17.71790704790817 17.695833511674298 17.627595259952596 17.517304385458083 17.37401513246392 17.20953227077171 17.036714797213744 16.868504694419734 16.71742678038174 16.59510492229489 16.51145572565259 16.473515493328964 16.484146030813484 16.54103019660317 16.636378328065543 16.757639330957662 16.889273503196222 17.0153419329991 17.122381973452857 17.201880659962427 17.251710158196317 17.276145786783587 17.284452605986857 17.288378901196157 17.29915303750119 17.324712858508097 17.36787903082763 17.42597457126435 17.491985089746855 17.556849938917487 17.612083749467956 17.651854380096687 17.6739373933686 17.679475560310667 17.671931584437974 17.65582248453404 17.63571669844707 17.61567282583081 17.598991757886676 17.58800760573692 17.583726410887298 17.585376859352216 17.59019925229643 17.593876108487937 17.591798782050525 17.580944711786145 17.56173894010463 17.53913528077251 17.522370186035904 17.523298005947876 17.553676431647656 17.622056277080627 17.73101391326957 17.87542456980082 18.04235770787763 18.212926254876002 18.365953169429787 18.482671465089933 18.5510991573248 18.56859138071611 18.54159520888096 18.482694359567695 18.406152742536953 18.32376493795862 18.242565539465875 18.164974956620597 18.090798888961682 18.019755650505253 17.95320193226704 17.894353710584063 17.84713870304313 17.814429154953753 17.796558714749352 17.79076488137955 17.791729202342946 17.79294422168367 17.788378958788666 17.773901477189245 17.748107664079264 17.712478932980698 17.67099847777973 17.62940668423199 17.594211214102117 17.571524186514342 17.56588310731055 17.57937621035523 17.611453233622704 17.659600906935253 17.720633928364776 17.791945748494264 17.871979817027032 17.959551777767132 18.05232094650097 18.145305078835253 18.230482676933384 18.298080927649384 18.339288094569064 18.34930214985107 18.329303403593553 18.286333674853942 18.230990766216507 18.173815432876346 18.121767997692373 18.076062814751506 18.032016409351957 17.980828877391655 17.91265785369161 17.82006749267039 17.700905047314173 17.559817602939138 17.407951942809 17.260858433995214 17.135151186077803 17.044888900921535 16.998752967349894 16.998823554734408 17.04116506619925 17.117761474763363 17.21888954147787 17.335001484050785 17.4576085247141 17.579269400442143 17.69323672523037 17.793352481745597 17.874438280269246 17.93297080274974 17.96758902449484 17.979088342343626 17.969897876411675 17.943346056117257 17.903092531952502 17.8529308207903 17.796898366222454 17.739445438117343 17.685392400513198 17.639516295427484 17.6057783020347 17.58637668762525 17.58094638734441 17.586272581653624 17.59677656279145 17.6057536295314 17.60699357122147 17.596186424072123 17.5715771918845 17.53369172400415 17.48442308291005 17.426064167522362 17.360816501552573 17.290944954424127 17.21932992540334 17.14995829838177 17.087990627486505 17.03932601789379 17.009841280614765 17.004565235103936 17.026975652805636 17.078485101852106 17.158105102163276 17.26226314829476 17.38476787919111 17.51695709024727 17.648119097564763 17.76632295196929 17.85975867859119 17.91851764947977 17.936471513587975 17.91268723624084 17.8518239999792 17.76325633678194 17.659125587325686 17.55188894880479 17.45202371012332 17.366365541201002 17.211098125835285 17.192639867731476 17.186153920670023 17.182123143086844 17.172139101004806 17.15176379976372 17.12244437091379 17.09155175143547 17.07021934483396 17.069537621613538 17.09638850955977 17.15043142289446 17.223395464247623 17.30105846578635 17.3673903221261 17.40958597309451 17.422336150554266 17.409828254432103 17.384652602539653 17.363833240439593 17.36324289203876 17.392278060026943 17.450588217085436 17.52789300709137 17.606799297251793 17.667507453643964 17.692767901621522 17.671576208432064 17.600756453784914 17.484449751174985 17.33221843458602 17.156739173843484 16.9718630670403 16.79135928997141 16.62821327524024 16.49412797973387 16.398915887567597 16.349667567962964 16.349801991357737 16.39825723489694 16.48914119475142 16.612124106431825 16.753707934981016 16.899262590711523 17.03544396532096 17.15242163748758 17.2453443237565 17.314669286141157 17.365293035194696 17.404729392818584 17.440811563566676 17.47951884302775 17.523520155339252 17.571843689620646 17.620720452398903 17.665216743786196 17.70097258323661 17.725378436872226 17.737858418792886 17.73939363294847 17.7317494549763 17.716900235579338 17.696898931491152 17.67408921615693 17.65130552923051 17.63168327187256 17.61792229795446 17.61121151317759 17.610345234743182 17.611643573571932 17.610025627068225 17.601059200857218 17.583283573622932 17.559865061387608 17.53883584470418 17.531677278152944 17.55057453114181 17.605056947860756 17.69887979895087 17.827967078361237 17.980088750434064 18.136656916474546 18.27651476712342 18.380894911062 18.43809317850825 18.446224823749194 18.412962150855147 18.35228911364659 18.279550392191368 18.2067812426988 18.14008693728119 18.07980659368737 18.02290215656631 17.966125380849867 17.908421764272337 17.851655733032995 17.799660867323926 17.75634940787859 17.723875170882003 17.701636135369043 17.686427026160242 17.673556525209595 17.658417241938672 17.63792532884498 17.611407396238903 17.580788655682493 17.550173082401905 17.525002512521784 17.5109590322462 17.512752139939916 17.533002145435333 17.57155190239681 17.625549799117397 17.690416499027645 17.761383978364634 17.834916832555876 17.909271269219737 17.983831407102635 18.057529708251963 18.127248045241988 18.18724271292502 18.230191737676297 18.249610757016143 18.242574221939584 18.211383627715577 18.163247617434077 18.107968271235578 18.054554911516036 18.00812667734026 17.968252981587575 17.92922728996697 17.8820593081556 17.81749257455523 17.72917627950656 17.61616046313379 17.484058597443667 17.344513516071633 17.21301454542066 17.10558585066269 17.035251580565596 17.009307435320256 17.028188034518138 17.086163315154305 17.173435467929096 17.27873519872679 17.391463631309765 17.502816257163822 17.60593054308485 17.695564046395912 17.76787844679509 17.820590238401476 17.853316210491414 17.867708299105043 17.86707986114853 17.855560063358247 17.837118139908586 17.814874265848097 17.790940177887414 17.766748125241104 17.743600451342576 17.723097270744102 17.707174674289355 17.6976616341182 17.695485051355565 17.699854372017942 17.707849885529452 17.714735801738563 17.71501425669831 17.703858107015872 17.678327950559424 17.637862298095662 17.583912962415585 17.519059911489236 17.44619061611424 17.368208592108047 17.288333466923245 17.210647492179486 17.140395401203268 17.08372160164116 17.046871360937907 17.035150072884615 17.05198809886034 17.09833302639974 17.172419830373606 17.26985775612327 17.383939691626082 17.50609394761528 17.626437856315942 17.734453784025234 17.819866879776434 17.87379720974361 17.890132338825033 17.866849775059478 17.806845087319637 17.71784509258816 17.61125232545141 17.500152731373262 17.397003625095493 17.31155336456033 17.249364206570068 17.189223058901106 17.2005147911794 17.222927418447664 17.245008368720043 17.256452801762972 17.251043863231025 17.22872342413071 17.195835002854547 17.163170368784126 17.142326251186756 17.141605804870085 17.16293304340854 17.20090836540686 17.24439646047417 17.280189819147168 17.29759155553417 17.292400250767155 17.26888012024912 17.23888945438901 17.218286424882056 17.221721356095664 17.257561682316407 17.324687140582395 17.412215821898176 17.50215540777546 17.573966533958398 17.609476894683628 17.59666755419974 17.53145665255742 17.417418093683132 17.26404000886081 17.084414007422122 16.89312250792073 16.70471617539393 16.53278069104608 16.38935718579993 16.28444749615851 16.2254400887773 16.216443991027923 16.25765786770978 16.345001835938508 16.470270125222505 16.62198347328739 16.786922465441982 16.952071035071686 17.106514190453606 17.24281677316044 17.357568630279385 17.451031545358045 17.526060182121366 17.58663704241839 17.636449710799983 17.677930102347368 17.71202809224405 17.738700210347293 17.757762865286992 17.769582163095958 17.77519336788872 17.775819554172088 17.77216049645399 17.763987961798655 17.75040640971822 17.730732969243476 17.705558923624974 17.677388690522758 17.650391851387315 17.629189593427448 17.617072316633053 17.61440617394558 17.61804269514205 17.622210634845022 17.620743439209907 17.609861562809076 17.590411158536956 17.56862747012027 17.55504504480423 17.56183026102856 17.599288211931317 17.672489468954904 17.778930851371086 17.907972031190152 18.042469380556984 18.162493643544103 18.25029942248043 18.295057584577204 18.295655925705262 18.260398700378694 18.20360417640153 18.14040929128262 18.081871335658875 18.032270553834234 17.98944631241765 17.947609543174348 17.9010767865819 17.847208800859274 17.787467676824846 17.72650056879951 17.669995283684937 17.62240433431168 17.585468692158845 17.55798241408667 17.53668920658301 17.517808236285298 17.49855975914809 17.47819242696568 17.458291090650395 17.442408491775502 17.43520503347322 17.441302124313633 17.464053378797672 17.50449392941917 17.560805305671963 17.62859737994508 17.702057895253457 17.775613116566728 17.845403332915666 17.90985323924346 17.969004414217483 18.022922759324473 18.0700572642379 18.106561452525746 18.12715312021902 18.127262164988437 18.10544219532137 18.06476108807927 18.012327715140227 17.957027709472587 17.906413566228597 17.864052246349782 17.828346179182372 17.79316037423444 17.749914394825844 17.69041091725429 17.609601972165176 17.507611899502074 17.390525982094754 17.26969437836433 17.159621105085076 17.07489048529482 17.026920600311833 17.02146653524219 17.05761054419573 17.128486945898747 17.223371555444945 17.33029482111121 17.43825259132148 17.538435730500762 17.624477740976587 17.692184372621274 17.73929802153442 17.765559973756144 17.772915585562924 17.765472311209695 17.74891579531379 17.729416003392164 17.71237145252919 17.70144630404503 17.69821625055985 17.70246421551923 17.7129071367128 17.727992889538392 17.74641360258989 17.76712504913223 17.788900182960305 17.80969768545916 17.82627180549738 17.834376871347335 17.82962030193902 17.808636964490123 17.770031594993405 17.714634801044415 17.645007211436788 17.564564781340604 17.476894765439816 17.385651758971065 17.294991240674342 17.210111767312178 17.137390776594376 17.08384517674041 17.056033206496853 17.05878372246521 17.094163931745623 17.160932688288373 17.254524099815548 17.367475553295144 17.490169003786548 17.61175502073012 17.72115005093407 17.808039761580076 17.863874285056713 17.882857856456827 17.862869095059033 17.80611752303438 17.719247539152196 17.612657233782258 17.49902847320701 17.391352859105968 17.30090864404207 17.235598126982165 17.198861714547057 17.225409089657905 17.25872276577036 17.299059103678402 17.334101616218465 17.35294247349697 17.34886683946494 17.321345850234408 17.27631416219293 17.224366542429525 17.177343541886543 17.144464778505565 17.129376825084922 17.12914962453006 17.13556854930963 17.138307385106078 17.128959406686157 17.104592752557664 17.06956933927649 17.034852964720837 17.014845893532115 17.022687371885944 17.065570723778865 17.141694307909844 17.239892870072016 17.34202751482157 17.42725786564006 17.47676852871914 17.477553422823767 17.424384304772396 17.319820075635917 17.172731853821222 16.9961162287965 16.804916038683842 16.61428808686184 16.43843281932858 16.28987119028374 16.178964203031423 16.113492894173714 16.098203989193742 16.134346102656117 16.219342539500627 16.346818226505622 16.50716131669364 16.688640181178027 16.878881379045293 17.066363505899755 17.24158214977331 17.3976803591446 17.53052451634737 17.638348215474927 17.721163059699556 17.780166048377925 17.817356557004295 17.835469940774793 17.83812769194911 17.82989191543182 17.815869023768986 17.80074001758512 17.787507526690103 17.77657410010009 17.765749448667272 17.75138738172263 17.730287068590883 17.701572016679307 17.667701174885277 17.63408859168536 17.60736451112392 17.592883567237703 17.592458940105875 17.603309470544733 17.618795177779855 17.630807124602484 17.632964744445637 17.6233967907907 17.6060271672196 17.589866715134544 17.586528531563886 17.60673078062985 17.656788710930165 17.73607150625952 17.836205961193784 17.942465831176655 18.037244129797745 18.104794063006214 18.1357726879466 18.129907637251264 18.09561593961463 18.046564230165316 17.99648180536774 17.95434448488764 17.92187564175865 17.894219380220928 17.86319527442313 17.821482720908374 17.765887436854502 17.698496312339408 17.625593307871522 17.555134455731814 17.493995287166722 17.44605395372887 17.411651661915062 17.38836456801225 17.372569765383414 17.361120433227335 17.352559200112267 17.347582123933268 17.348757550611577 17.35968549104554 17.383842608410028 17.423372102800677 17.478114205495363 17.545204594583616 17.619489793112855 17.694749576162636 17.765343749651507 17.827614069439946 17.88038215834645 17.924261830730874 17.960104499536264 17.987410107627323 18.003648172018256 18.00501382873973 17.988363355757564 17.953353252432304 17.90358649724608 17.846021108398265 17.78878238829842 17.73832931770068 17.697206331478142 17.663264017004348 17.630533742821513 17.591309627828167 17.538693360390543 17.46889018353998 17.382737896321085 17.28615455089118 17.189374461266127 17.105057414742003 17.04563057096278 17.020494837635177 17.03386502386996 17.08389392540263 17.163334654089606 17.26145267805566 17.36645351663965 17.467579241838987 17.556318799077058 17.62670638131089 17.675127952571156 17.700155739606608 17.702662931601708 17.686063868350622 17.656279083860344 17.62109646207158 17.588914300464943 17.567189552919757 17.5610782096183 17.57268270149713 17.601082273158937 17.64303938024592 17.694055647074084 17.749363155600808 17.804512422203498 17.855442191222874 17.89820348181297 17.928714090209187 17.942902223195357 17.93733726196132 17.91008784452088 17.861333767699026 17.79335752349634 17.70991111937727 17.615349359095397 17.514061559263627 17.410510246470288 17.309746760295695 17.21792240328445 17.14228436516232 17.090438819604277 17.0690642308996 17.082512113580098 17.131729704958467 17.213755486716703 17.32183236051372 17.44605760598344 17.574442458564747 17.694235951425437 17.79335089854105 17.861728511363008 17.89250527248451 17.882879663314974 17.834581213834323 17.753821681020074 17.650615077339026 17.537453642135127 17.427515327701123 17.332755542733793 17.262275150394743 17.22121731774935 17.210229546611668 17.303694530297367 17.35147815211236 17.399685649875046 17.43605395403636 17.450191