# vtk DataFile Version 2.0
Really cool data
ASCII
DATASET STRUCTURED_POINTS
DIMENSIONS 200 200 1
ORIGIN 0 0 0
SPACING 1 1 1
POINT_DATA 40000
SCALARS temperature double 1
LOOKUP_TABLE default
18.101334778575897 17.90093537446679 17.67457043802986 17.43053490248217 17.180782675991235 16.941494304146143 16.732425794137132 16.574431018791547 16.48526372470398 16.474701050902237 16.540629493145126 16.66765504473759 16.829104129219957 16.99227651599974 17.12579929237661 17.207152624228105 17.22814678187449 17.19655950305952 17.133297716448432 17.06594613892645 17.020776325723475 17.015702250113737 17.056179892630094 17.134951857680164 17.235285998746267 17.3363421363333 17.41878729137876 17.468910485560656 17.480242553395197 17.452795712492268 17.39100617010797 17.301798562862754 17.193728797485498 17.077211794330516 16.96499718356319 16.871805596384917 16.81247401135077 16.79879041237801 16.835979670835414 16.920171459153703 17.037985336536533 17.168689005729462 17.288493719403274 17.375804104740116 17.415935106413286 17.404046658564766 17.345687071969174 17.255075576427007 17.1517876222438 17.056690399326705 16.98789553946287 16.957364216842127 16.96874879079849 17.0170012578816 17.090014715642308 17.17200820368944 17.247719696558224 17.306112166444 17.342482748388836 17.358528070156897 17.360707664793058 17.357763276455383 17.358293483794064 17.368940209149525 17.39330580736702 17.431471189382915 17.480018978036124 17.53263481864819 17.581414477964724 17.61880602061334 17.6397619956016 17.64342531213506 17.63373906150269 17.618755284197476 17.60890454486755 17.61480391981272 17.645188836384484 17.705335587448918 17.796107281341627 17.91366354045091 18.049902720226843 18.19369659096131 18.332800641620775 18.456016647777854 18.5549494688991 18.62475492719791 18.663680652575103 18.671786074278597 18.649666154571136 18.598007182139167 18.518315765955325 18.414431608798946 18.293885407658273 18.168134148757204 18.051226209276876 17.957215313889122 17.8972201189344 17.87712629563075 17.89657095057196 17.949303049063285 18.024575740431143 18.109039861741447 18.188646701466954 18.250247119790213 18.282818851083743 18.27846690606229 18.23337954796733 18.148701428242376 18.030941678604744 17.891400572830577 17.744423610032328 17.604945556121212 17.486280765353808 17.398998312052903 17.350996206933907 17.34806151347805 17.393884533189045 17.488932892842396 17.62850461911077 17.801087724725463 17.98836071695058 18.167620184973988 18.316348690210415 18.417536273463405 18.463799327215945 18.458654093312735 18.41441768501639 18.347591764653096 18.273527698553618 18.202241649968137 18.13653789746727 18.072602675471295 18.002453440956792 17.917280647833845 17.810716580153773 17.68123794781645 17.533171105724087 17.37612350639588 17.223097914385455 17.087951708882187 16.983068201331054 16.917964528783884 16.89906904708298 16.93026417642397 17.013358638132278 17.147727739847458 17.32896811720022 17.547222947452266 17.786327176698666 18.02473640887322 18.238400960482736 18.404801945815297 18.50684683784517 18.535495832307763 18.49065533381841 18.380546074663844 18.220052408059235 18.02847674795621 17.826942582942966 17.635673161248732 17.471517782900413 17.346180689770065 17.265447311289346 17.229361799134274 17.233040417168116 17.267800859262493 17.322492668771066 17.38507747957009 17.444423858354515 17.491990881697326 17.522844587363547 17.535552033030037 17.5309612352763 17.510439932347463 17.474438287493363 17.422058088548074 17.351776738148654 17.262931930578354 17.15731684438123 17.040313389055676 16.92123458475903 16.812769858672045 16.729577983479885 16.68621350874598 16.69474093550298 16.762519781978153 16.890630410189594 17.07324283423079 17.29801581316302 17.547467877047318 17.801185435411632 18.03861665081153 18.24197455651733 18.398546311468028 18.501716712589683 18.550412857023854 18.547324615402136 18.496767603331488 18.403091496838073 18.270094506525997 17.862684015582612 17.688520892917733 17.499829033822007 17.30090398292297 17.098964651645396 16.905508372334616 16.736451402082842 16.610253301190863 16.543978865291177 16.548288530791723 16.623068074877036 16.75541843420622 16.921055366583428 17.08912289270069 17.229336143727657 17.31951304435526 17.351205532619655 17.331542275957833 17.28055476343259 17.224797545808357 17.1893509345573 17.190769822962928 17.233072493600275 17.3077191091915 17.397183604945624 17.48062480119948 17.539633388665116 17.56222925837033 17.544150048686337 17.48767214658529 17.399193124297874 17.287083123296675 17.16076089332242 17.03093955376704 16.910148406754928 16.81244055849323 16.75167762459372 16.738599734741022 16.777594915459357 16.864373899353204 16.98555841877918 17.120610448193887 17.245782704523425 17.339114326367373 17.38515603335835 17.378201256728577 17.323273083756327 17.23476721774855 17.133218567190685 17.040974000482922 16.97763013367558 16.956072714056187 16.97992140665851 17.043056027839825 17.131508539772234 17.227326875515498 17.31330409554244 17.37711186873613 17.413621287968756 17.424935214078936 17.41851640838668 17.40436462724223 17.392265035335466 17.389776283043595 17.40112841163636 17.426858423861077 17.46396774891259 17.506553575501773 17.547010068106957 17.5778203885221 17.59366745334326 17.59328377878424 17.580389538763985 17.563333944654357 17.553522511733753 17.563107185212687 17.60253404066861 17.678402778387508 17.79189599336226 17.937973218411653 18.105588674743647 18.27918362136562 18.441426554597335 18.576648587821847 18.67393388264503 18.728748703354267 18.742507535744885 18.720394427648152 18.66859556659538 18.592351922548563 18.49571978326513 18.382910640722695 18.260163263116247 18.136814049901794 18.024713025213252 17.93605299781824 17.88048512831045 17.862671366229428 17.881125795892892 17.92859515296457 17.993672006781143 18.063027084444098 18.123612667129365 18.164365427489066 18.177246426930243 18.157773269382734 18.105338872277017 18.023449786292122 17.919668013806564 17.804842736452596 17.6914543457475 17.591473271928304 17.51459892183769 17.467634116609176 17.455044831739386 17.47993203077467 17.544317129649347 17.64809127842048 17.786943032525624 17.950463804402105 18.121888702847333 18.280362309218265 18.40545767953234 18.48247851105246 18.50646825242589 18.483216292893534 18.42677036039267 18.3544290951242 18.28114930050043 18.215332800679988 18.157191884654043 18.099846263123027 18.03247121954394 17.944392600486456 17.828947721122454 17.686090174032774 17.52307215743671 17.353075381777042 17.192283531154768 17.056393740678697 16.957730239262204 16.903832151031576 16.89771424081377 16.939223972541694 17.02642869241371 17.15605975145381 17.32271242843923 17.5173869280851 17.726514558255825 17.93247198756666 18.11581338514719 18.258530366191035 18.347156828330153 18.374731408930533 18.34129575030723 18.253241827567503 18.122044981564642 17.962735969574577 17.79218785661354 17.627218530661345 17.482661471179522 17.369721520853165 17.29490842912899 17.259645676160243 17.26047760753746 17.28978969173488 17.337053170220656 17.39060387209035 17.43974396330926 17.47662994175878 17.49726597817544 17.501176365368433 17.489922320653438 17.465215224954186 17.4275734655617 17.376135610150296 17.309603440963617 17.227757274552108 17.13284612190173 17.03037422726272 16.929128908080443 16.840500588251807 16.777208956349682 16.751582787926818 16.7736241035649 16.849177159661437 16.978530914161368 17.15570035441874 17.36853933830757 17.59979481876863 17.82915753550277 18.036165930859827 18.203449673942426 18.31944526174402 18.379687273454945 18.38623885125504 18.3455911845745 18.265982461353328 18.155176225177993 18.01929268419564 17.617490025055492 17.48106039722935 17.34135348967892 17.19798573780385 17.05277956402325 16.91195824220698 16.787143609351983 16.69414822853861 16.649348631651648 16.66456392353474 16.742207127017714 16.8725833866332 17.03457480999784 17.19988150709166 17.339837797728148 17.432891302069468 17.47040978083215 17.458819584275343 17.417210505457465 17.371109675320053 17.344491348589425 17.35266587099596 17.398270906747484 17.4714035058396 17.553480091897644 17.62321571526359 17.66256006741866 17.660683998493905 17.61507127260872 17.530038796580925 17.41400550036799 17.277072535975552 17.12988530611771 16.983726748408717 16.850975108164917 16.74488897824733 16.678152881955892 16.660365871046928 16.695262512526675 16.77868224905363 16.89813604205735 17.034373494124356 17.16477802414434 17.267865584417244 17.327792579794366 17.33772463988557 17.301218108097267 17.23131183894164 17.147601323317023 17.071978266830392 17.023919899961516 17.01628241567988 17.052543735155158 17.12626588948655 17.223068695079142 17.324650450635254 17.41365063119321 17.477824274128732 17.512301413024726 17.519497010935417 17.507116655828884 17.4852649448783 17.46371364293836 17.45000657588859 17.44853953898362 17.46035950725234 17.48335368928175 17.512703517065628 17.54173582601975 17.563358308931512 17.572021617906845 17.5657527763469 17.547548664957503 17.52552456466825 17.511647715067273 17.51938328153186 17.560855938306354 17.644109155639132 17.770893425910618 17.935352344268136 18.124033715086277 18.317624701512717 18.494447434949663 18.635047059205448 18.72649898251544 18.76485726084979 18.75475811341461 18.70640215894932 18.631348920304035 18.539068335261543 18.43567929507891 18.325048763851424 18.21115994215868 18.100098860318262 18.00040549262188 17.921556406792458 17.87134744315033 17.8534038605464 17.86584333303205 17.90151079960266 17.949569542576665 17.997823214382596 18.035029432151507 18.052615911457746 18.04555092860173 18.01250684271627 17.95567216170428 17.88046254078773 17.79504927745747 17.70939919568835 17.633694701074965 17.576511974555054 17.54354510528944 17.537533920698117 17.559353743539162 17.60941650492023 17.688221526507025 17.795367379051108 17.9273480674158 18.075401648827498 18.224972763874838 18.3577581353468 18.456066114298054 18.507949592309203 18.510958129170934 18.472793562695283 18.408470110471907 18.335090992941616 18.266274327331075 18.20820068930627 18.15841395747791 18.10743843828796 18.042452401905596 17.951835583972596 17.829311409630712 17.676553330530783 17.503522222496205 17.3264403958597 17.16404843062793 17.03337003814753 16.94636685580838 16.908487111803762 16.919314760444767 16.974636682183657 17.0686859277108 17.19539657795894 17.348209319736743 17.518911377111102 17.696614974436457 17.867888869650738 18.018327389372526 18.13496464241452 18.208492047331713 18.234461271558956 18.21331350324883 18.149660970267753 18.05138564868536 17.928838325976177 17.794053694918723 17.659762914189724 17.53813060119633 17.439369183403723 17.37048390716825 17.33435610859899 17.329310879988423 17.34932657006106 17.38505082719324 17.42563270237204 17.46102486032233 17.48404287223982 17.49139202732149 17.483251852295137 17.461696067642386 17.428815347554032 17.385515586229573 17.33151315723908 17.266350969053494 17.190772333407825 17.10776885613219 17.022953531125246 16.944277687995488 16.88127396997199 16.84397830846509 16.841624938868822 16.881228575291548 16.966232428969402 17.095424116486765 17.262295806317226 17.455020462879755 17.657257408559595 17.849981374770106 18.01429523231976 18.134728144395567 18.202077259408775 18.214779286890884 18.178277833778154 18.102679007362585 17.99967250080287 17.879826361788467 17.750933584471642 17.397616542301737 17.305717565523867 17.220319620041636 17.136180649508052 17.049617660203623 16.961508957195893 16.879137763298374 16.815661875019064 16.786825692307914 16.805764128366626 16.877707842681563 16.9965983228776 17.145026358730867 17.297826103521896 17.428465826046665 17.516389317055932 17.55296646228783 17.543965389424404 17.50752415250703 17.468169570985815 17.44888118398985 17.46390021649195 17.514644890870052 17.58989112474754 17.669828318844598 17.732303310151856 17.758976391608122 17.739407391726086 17.672114173255345 17.56295156958242 17.422155246533535 17.261628095734252 17.093468926639513 16.929762812476742 16.78287324842488 16.665300605123505 16.588575427302118 16.561292147752386 16.5868858708799 16.661936158249155 16.775676072779312 16.911095097384568 17.047626940995265 17.164966200274367 17.247164776449033 17.285974464968 17.282543144878446 17.247009583537597 17.196094498939107 17.14924600611236 17.124177653509687 17.132774033184333 17.178357086064985 17.255114423059666 17.349971616553102 17.446407346582752 17.52898718951918 17.58712783924311 17.616973878137745 17.62108408130477 17.60646084679614 17.58193130214951 17.555855819746654 17.534713966606716 17.522571622858983 17.521054202802937 17.5294152227061 17.54457321956961 17.561368373873528 17.573457467302728 17.57504099933231 17.563098940501117 17.539343836944283 17.511024895411865 17.49011094821402 17.490992870203446 17.527308972686843 17.60862359199856 17.737590758793 17.908152498364448 18.105341293170675 18.307191851816775 18.48883910722646 18.628044074852816 18.710511560959368 18.73304021731959 18.703178281843567 18.63549514213516 18.546109983700635 18.44787934241628 18.348172896590413 18.249726509244983 18.153491223468826 18.061568013744257 17.978595081507034 17.91102643166272 17.864903250145606 17.843359705311173 17.845030543510376 17.86396178376889 17.890949802579808 17.91573667973524 17.92928832883218 17.925482374003863 17.901873164941968 17.859626548754584 17.80299012995686 17.73861483516361 17.6747492889342 17.6201085488864 17.582357611724646 17.56659245402834 17.574542253270312 17.605045922874876 17.655655314123592 17.724433088214173 17.810732674407532 17.914251499421034 18.03269722670901 18.159391554151128 18.2824501541806 18.386562502685877 18.457099559016793 18.484959425434926 18.469963661549613 18.42113518869315 18.35358856060815 18.28328465047052 18.221736480968413 18.172563664951753 18.13086615119042 18.085323316580844 18.022172096329655 17.92986969309636 17.803183209731092 17.645592625908268 17.46928228006704 17.29265001989815 17.136043959872072 17.01705755059696 16.946886889379027 16.928853273274324 16.959337387841654 17.03040385340472 17.132762070964613 17.2577443621821 17.397687902174006 17.545091600509185 17.691595809315622 17.827795625340656 17.944213916376327 18.032928928012772 18.088946347060237 18.11065686300339 18.099370494780825 18.058457193079093 17.992692278336538 17.90804762292543 17.811729564519517 17.712069292803974 17.61798628564326 17.537997825864736 17.478944118566147 17.444693566638858 17.435155443960376 17.445981050869808 17.46927764865371 17.495371258745855 17.515177621907828 17.522335371244623 17.514237483180807 17.491578875407363 17.456789882852366 17.412290949165516 17.359513116948854 17.299080839785244 17.231833001218853 17.159945923422626 17.08752982224874 17.020509257729522 16.9659889855638 16.931412070191055 16.923691645469315 16.948352293919726 17.008684161963718 17.10495886627445 17.23379044080453 17.387737525271433 17.555299100780054 17.72156097918533 17.86977111811861 17.98388791410469 18.05165424770782 18.067264636568446 18.032592674911637 17.95641645084546 17.851908697009847 17.73334876435202 17.61315448007608 17.499924035961847 17.23079060380575 17.184383929836905 17.151523772729025 17.12256328348116 17.08889270868688 17.04660578346573 16.999075764388923 16.957041251761417 16.935661717943784 16.949315927277084 17.005973023559307 17.103239648084127 17.227624733445346 17.35748391365263 17.468904765505833 17.542787867307574 17.570833514286736 17.5583062703038 17.522415000008646 17.486673570724484 17.473115478181732 17.495064465963814 17.552934133451153 17.634348095410726 17.71825731402198 17.781347826829748 17.80439876971566 17.776552300942956 17.696502347675462 17.570914937083078 17.411377749051663 17.231425243196682 17.044672165495996 16.864194291504397 16.702566609198563 16.571763584521385 16.48242137627456 16.442456862979142 16.455425111985154 16.519154118212033 16.625171658196166 16.75930738100045 16.903619179491088 17.039438951577775 17.150925719460414 17.22823037919272 17.26939220459262 17.280427888321835 17.273580254287854 17.264152401277777 17.26665785412563 17.291186873076413 17.340932001442226 17.411633327438693 17.493188496667596 17.57291506284617 17.639298779603426 17.684897687889148 17.707520309972836 17.709604316495483 17.69644462549851 17.674218075897034 17.648565474527285 17.624004516732843 17.603940317444927 17.590761765432212 17.585593072298796 17.587669285859544 17.593790770153436 17.598549653550094 17.595777058890057 17.581004038318827 17.554047691676832 17.52057895052828 17.49187911376095 17.482717616279437 17.507939338626194 17.57863649415457 17.69874086864273 17.86276075092352 18.05534932068786 18.253281429700195 18.429941590739816 18.561507065405063 18.633008429048175 18.64202322058662 18.59839691689636 18.51997937627108 18.42615109187326 18.33189846084485 18.244793635278977 18.165667579050563 18.091940575596833 18.02149290170241 17.955095741080317 17.896508011269905 17.85064061067615 17.821008042593412 17.807762103954573 17.807107357695337 17.81220481655128 17.815093117497074 17.808859130617165 17.789319700946628 17.755790196272553 17.710955242440154 17.660172866467697 17.61055074453972 17.56989384148668 17.54543128683599 17.54235059460727 17.562545519054076 17.60424630466489 17.662980360503106 17.73361027633757 17.812447713491693 17.898202184090025 17.991055028743823 18.090215297636053 18.191315693937998 18.285329820271293 18.360063857022514 18.403947996199424 18.41051738041942 18.381406570574057 18.326274737581166 18.25953822593014 18.19528606852722 18.142472437079526 18.102143489285822 18.067443521135885 18.02610759829889 17.964510937733174 17.87212758678225 17.745265771690246 17.589094050305032 17.417310745091864 17.249402494004027 17.106183816886706 17.00493499375403 16.955661313802654 16.959628733695443 17.01047920261933 17.097225071802562 17.207724725017364 17.331216729905545 17.459171832872794 17.584727893657874 17.701697130410768 17.80414729731516 17.88691468938327 17.9466116705545 17.98231819913304 17.99541447733405 17.9886528116444 17.965074664063955 17.9274116635349 17.878216010788037 17.82048127651698 17.75825838489453 17.696826206170613 17.642209690565362 17.600089603336436 17.574360977680016 17.565784464401695 17.571289608815526 17.584396280538815 17.596828310570427 17.60081868957584 17.591175153363917 17.566214194981235 17.527238451464925 17.477020216682337 17.41826707199593 17.352944724911506 17.28269458645477 17.20986226618708 17.138337285611453 17.073649162333574 17.02230399458007 16.99075167214928 16.984417087723994 17.007008472769915 17.06008829793534 17.142810546609102 17.251757261470626 17.380847655800867 17.52132896518231 17.661949066427173 17.78955489268483 17.89041676961855 17.952372665359547 17.967416869052958 17.93388765595913 17.857308349795293 17.749379100604838 17.625390102126048 17.500954571587137 17.38906501918167 17.29808473146931 17.135709858775478 17.130247888709153 17.14162423367376 17.156827309193677 17.16355133861642 17.15427584410506 17.12935375537046 17.097574699140516 17.073542135809365 17.072566577042643 17.104893672944076 17.171403178786125 17.26237418069207 17.359848083667273 17.442949530209972 17.494551275992922 17.507116010921006 17.48562981921462 17.446378589442364 17.41174771504145 17.402735749406823 17.431803234987644 17.498576373616775 17.58981500910142 17.683429396180074 17.754893379480915 17.783721490684542 17.757952506624466 17.675599862477426 17.54329474437097 17.373305751665256 17.1803991219042 16.97959095116346 16.785071434015578 16.609918515640132 16.465973099831672 16.363412931397892 16.309902747883303 16.309481092689676 16.361493209727335 16.459942293841547 16.593639368368695 16.747428768532348 16.904483836153457 17.049258164557752 17.170339417817885 17.26239480404667 17.326666396824834 17.369917477476662 17.402137606229818 17.43358630346623 17.4719179938357 17.520188776185538 17.576390901632827 17.63468857494382 17.68784729662036 17.729815604475142 17.757393899579228 17.770462339924425 17.771010239000397 17.76174771082828 17.745115943808937 17.723110433128667 17.69777732580426 17.671832681456227 17.64876567488362 17.632058541945312 17.62369203644039 17.62266461857522 17.624503329192706 17.622438616246868 17.610117104682963 17.584855090324773 17.550023819383064 17.515466767419213 17.49567110914802 17.50624732916412 17.559712822976675 17.661599451256986 17.807766158183934 17.983697102512846 18.166408353022618 18.329084222172842 18.4476041190894 18.50704311936522 18.505719998766523 18.454982644341634 18.374602780799012 18.285619023266996 18.203636727947302 18.135270640160915 18.07877288316929 18.027865038319188 17.9764897000911 17.9221943783425 17.86694153589987 17.81554995095398 17.772963858077034 17.741775789441345 17.721015038356235 17.706510330772723 17.69247954550629 17.67360009346132 17.646760314946143 17.611963784014783 17.57229829170965 17.5332333331578 17.501579214298992 17.48426919568201 17.486977141494734 17.512692628959652 17.560689022893992 17.626500265162832 17.70325237081321 17.784004507687957 17.864056256771715 17.941984989537048 18.018724352782417 18.095052455111958 18.168849603242315 18.233807588017697 18.28064551302673 18.30055819408589 18.28929852800789 18.249770292338305 18.191660477281324 18.12812960451539 18.071028271759648 18.026698151204855 17.99393469255243 17.96460189366602 17.92639529495944 17.866751865729825 17.776849904467525 17.654764339631125 17.507000597431084 17.347891670717882 17.196819370190546 17.073869955426456 16.995126185167916 16.969039520453094 16.995032344957984 17.064690877215906 17.164917683701393 17.28167245143213 17.402838346479268 17.5193869172766 17.625018000641425 17.71520885681213 17.786662788325025 17.837539108557653 17.868073779273878 17.880837406464938 17.880142213961186 17.870738109012375 17.856437693703946 17.839351364288596 17.820035929305437 17.79836724878985 17.77463504376782 17.750324522094186 17.72821574419068 17.711687400332732 17.703407158293 17.703889968674513 17.710593651509548 17.718122566543293 17.71965163934659 17.709043071695305 17.68269046240232 17.64022109626458 17.58382215623013 17.516754374189873 17.442054038792858 17.362202756668683 17.27982269810042 17.19874670207336 17.124602629101936 17.0644322466192 17.02549600231617 17.013831627817545 17.033120114953455 17.084108849194127 17.164543272498605 17.26943542813153 17.391511588706848 17.521721337916915 17.64973133657621 17.764423654571328 17.85457234494768 17.909952467745928 17.92298035819478 17.89059054756759 17.81566169749002 17.707239128835756 17.579204539346758 17.447706416529595 17.328160582819706 17.232649850361785 17.16816374721658 17.11854738660492 17.145617959434063 17.18852721614534 17.232304262453443 17.26261368895173 17.269925401515383 17.252811035646285 17.218777933357234 17.181914889942913 17.157994326063438 17.15880026019846 17.187771137512282 17.238511769752204 17.296697071970026 17.34479224029955 17.368130407776704 17.360380968988775 17.326467645178727 17.281683680860198 17.24702180376991 17.242175311885667 17.278650525821032 17.355460914464086 17.45888763630368 17.566227287867513 17.65200752527346 17.694431869949877 17.68003264382409 17.60545387563536 17.47646966175962 17.305253278400496 17.107225147473986 16.89851446424071 16.694444710464484 16.50887577776475 16.353959145793038 16.239899252567522 16.174503973402434 16.162495101651498 16.204696925418123 16.29735961592298 16.431987212298793 16.596022974016588 16.774508210829634 16.952434665124493 17.117171025085785 17.260274428824374 17.37823022652483 17.47203274974256 17.545828567904806 17.605027959166282 17.65440590967331 17.69677313433816 17.732683296476665 17.761245324151012 17.781546766558687 17.79382394845355 17.799660025058593 17.801122297265074 17.799453578099758 17.794228905753307 17.783598145823742 17.765578015348115 17.739744875245464 17.70842210141939 17.676632075942592 17.650597252215633 17.63524674750763 17.631768218523447 17.63644323094518 17.641602726908257 17.638611807184333 17.6217765087485 17.591535555668877 17.555573388895564 17.527383009768364 17.522780215156406 17.55544820483712 17.632679361552405 17.752323267766847 17.901791001996493 18.05976383806798 18.200739964788312 18.30158785112232 18.348167253267267 18.339513838548818 18.28765954320533 18.212868469785807 18.136137825983973 18.07211344167604 18.025322808853094 17.990947048790566 17.9591854431083 17.92078587592973 17.87119430079802 17.811855631553666 17.748718449597515 17.689148438166562 17.63882514966952 17.599848741221443 17.570559376215325 17.54683469764384 17.52413218570151 17.49940917853515 17.47228049484796 17.445209177651694 17.422911941264708 17.4112948328987 17.41613629154538 17.441631820915205 17.489011663748727 17.55568777549744 17.635484749970075 17.720200973996572 17.802084494302182 17.876178333133613 17.941348407754226 17.999352760787993 18.052326654364204 18.100007676008072 18.138334737091327 18.160444817120354 18.1597946666197 18.133850313744823 18.08630870029679 18.026506678593197 17.96615985600844 17.914954537143597 17.876981603475112 17.84939621908793 17.82354564553724 17.787865362932422 17.731487823254703 17.64762133617209 17.535999459000436 17.40387901278187 17.265239699357604 17.138164756925836 17.040889632811524 16.987527919281384 16.984752689041585 17.030516324513894 17.115213848589683 17.224766586311894 17.344352494423422 17.461354231899943 17.566662652191734 17.654444061905913 17.72124964638877 17.76543864843727 17.787312750582075 17.789600080199875 17.77755348370681 17.758165835726693 17.738612935004024 17.724546269490535 17.718953436573827 17.72199587541374 17.731772279671745 17.74559843040472 17.761251325372164 17.77767986013518 17.794891670179492 17.813058808043483 17.83127358609556 17.84665370528574 17.85442491657025 17.849130780564014 17.82645358912239 17.784703344895856 17.725175800158464 17.65125753222494 17.56693653073441 17.47572464856714 17.380661224457675 17.285278369703892 17.194727042173245 17.116157335033908 17.057945240485285 17.028058611017403 17.032270686181516 17.072865124168324 17.14811170426253 17.252448667166828 17.37716226226749 17.511359127981816 17.643058620744206 17.760254333747024 17.851861871286676 17.908600535393617 17.923948466819812 17.895226264374134 17.824596584384516 17.719507442671052 17.59211032586812 17.45753854232667 17.331439016676637 17.227458960468358 17.155281376027162 17.119404666265236 17.171724267345283 17.22141061591857 17.281790332727574 17.337381511883763 17.373579931603555 17.380585474718345 17.356568848157842 17.308529700208336 17.250129060531982 17.197104547281427 17.161948450704266 17.14980463092263 17.156996146027286 17.172614879111116 17.182623619192604 17.1751844061573 17.14551783278547 17.098599613559823 17.04853192159701 17.01448459224645 17.01439011707564 17.05855105596264 17.14546922228902 17.26139126232758 17.383636810368444 17.48639248529254 17.546916021498426 17.550235178563387 17.491254646852965 17.374247346452517 17.210540223839775 17.0155354157493 16.806032426775445 16.598351399503976 16.407287390845138 16.24564361883499 16.124022222473823 16.05060632494812 16.030768792683617 16.066483996661315 16.155708821487206 16.2920734515773 16.465244755519308 16.66211076082993 16.868570842920303 17.07143091993604 17.25988376775753 17.42628607756685 17.566233676504655 17.678108729891154 17.762322211807007 17.820509605058977 17.854986917062316 17.86870942959866 17.865676016500267 17.851304859751515 17.832122844140322 17.814437109330708 17.802374551691315 17.796288889949526 17.79255813794566 17.785151658883375 17.768427276882797 17.739969576851486 17.702217861106515 17.66211580044903 17.628788739020795 17.610039983395588 17.60901234920726 17.62245792371478 17.641545731587108 17.65511055760042 17.654139995256877 17.63569303944357 17.604685971574963 17.572911057670908 17.555723116014285 17.567512728620766 17.6172324016702 17.70507580198596 17.82120200265289 17.947154985433865 18.06011396943413 18.139172665470465 18.17175488232765 18.15768876323818 18.10899276941691 18.045105395622016 17.985381574479153 17.942041170912223 17.91656102156652 17.900809093932992 17.881964612659797 17.848670808387908 17.79567327974649 17.725296570314026 17.64573940047155 17.567460851975948 17.49940239177279 17.446468912556693 17.408921350682668 17.38351147508677 17.365607361531854 17.35136487492524 17.339198492123465 17.330241156188155 17.327901424550138 17.336821179096265 17.36150759126217 17.404848901981946 17.466799075053316 17.54368588469669 17.628616519816173 17.713124758710027 17.78959800777917 17.853485159013257 17.90420196107922 17.944175836812658 17.97640886701121 18.001808565062603 18.01781716945213 18.019290874248618 18.00135018191617 17.96270935777491 17.90756698237802 17.844846938291997 17.785033340561114 17.736140718774177 17.700716874059186 17.67507855542715 17.65080775783108 17.617647973183242 17.566710272665553 17.493166769775065 17.397971021365947 17.288350449471505 17.17690779754969 17.079333847924225 17.011073169346876 16.983707649225966 17.002102512810637 17.0632738067108 17.15740707697008 17.270642531533294 17.388519898435227 17.498765160829304 17.592575369971406 17.664458059831137 17.711436364210027 17.7325548329128 17.72908765740119 17.705106523894433 17.667665048630905 17.62604371356257 17.590072390444277 17.568083300875436 17.56523479745039 17.582756365962826 17.618275078727326 17.666996768963173 17.723250548638898 17.781810949583225 17.838520491142273 17.890058013119713 17.93314815341473 17.96385970821739 17.97763454211124 17.970242965235922 17.93921315721214 17.88487621335958 17.81033598338442 17.720349735142275 17.61983713007292 17.51299185021243 17.403546061909122 17.295920391409183 17.196360007726675 17.113146341218002 17.055553400223644 17.031943619030507 17.047786774349582 17.10427581674237 17.19781925854684 17.32034393552943 17.46020869170064 17.603540352930647 17.735816873895235 17.84349658198278 17.915492485859637 17.94436498864451 17.92719814487844 17.86612837488573 17.768391548260134 17.645667743444225 17.51259513109773 17.38462324445363 17.27570243491914 17.196397630639012 17.152759500677828 17.14586622586563 17.275474687834315 17.338624