# vtk DataFile Version 2.0
Really cool data
ASCII
DATASET STRUCTURED_POINTS
DIMENSIONS 200 200 1
ORIGIN 0 0 0
SPACING 1 1 1
POINT_DATA 40000
SCALARS temperature double 1
LOOKUP_TABLE default
18.094504652081852 17.896055646796206 17.67199995518483 17.430643263488466 17.18389734268004 16.94778426843936 16.74173764861822 16.586146877506604 16.498269671743966 16.48751972235892 16.55170258089171 16.67570081130408 16.833445930629225 16.993041168787475 17.12391211555919 17.204108324071946 17.22560758916558 17.195900524559146 17.135247800314346 17.07043928447799 17.02704817554979 17.02257910857436 17.062451288616728 17.139705342833842 17.23810758856395 17.337335119167243 17.41842490993822 17.467798417314036 17.478900355103043 17.451549876279866 17.390022231119527 17.301199682538552 17.19370167120535 17.078015810545317 16.96685725464717 16.874741483785673 16.81615897703469 16.802523414556166 16.838807668520733 16.92113540120377 17.036411038276498 17.164422684498906 17.281999844467183 17.368092671420314 17.40834498074591 17.39795596139397 17.342233918063126 17.25495274470509 17.15513914239239 17.06310904225774 16.99651038982879 16.967009504417746 16.97819923197012 17.025234861703343 17.096434848382046 17.176550697576413 17.250804304554446 17.308458069710593 17.34486141058475 17.361543635300283 17.36466927691795 17.362664275844534 17.363869083644698 17.374759425751762 17.39886633637534 17.436289800051235 17.48372212300151 17.5350448272091 17.58260698253475 17.619106210101425 17.639664368401284 17.64345633148015 17.634311418671594 17.620065798854526 17.610902927709176 17.61722436364886 17.64761444379642 17.707268623105094 17.797037358411693 17.913140377430256 18.04761566716745 18.189544126446904 18.326918592396403 18.448741264228293 18.546721411026994 18.616005204964118 18.654755557619552 18.662950632607163 18.641180481313906 18.59022246331853 18.51171688208829 18.40957752767064 18.29125515258831 18.167942323757178 18.053293890813286 17.960957220655445 17.901754006794334 17.881458760543975 17.899791912890606 17.950732958402284 18.02383904396161 18.10606702115751 18.18362683544962 18.243563395404042 18.274996056629956 18.27014108094227 18.22527038968516 18.14155249295371 18.025411926778784 17.887936293109714 17.743174515369116 17.605776284590906 17.48887068739888 17.402962076613388 17.355944343742117 17.35356731244185 17.399396379663393 17.49371866777646 17.631705975417795 17.80190363270034 17.98630466125037 18.162742132114808 18.309309058461544 18.409471861786752 18.45601115913688 18.452231422824173 18.409944474860204 18.34504213318888 18.272368969579077 18.20167939036384 18.135798793038582 18.071164180562057 18.000169200001636 17.914389735173966 17.807751450594616 17.678864253340855 17.532006456380593 17.376588442796276 17.22534342354072 17.091880594761754 16.988429254946965 16.92446479688941 16.906439857860782 16.938242227783004 17.02159646670114 17.15569980105894 17.335955114904777 17.552421409367803 17.789060386066772 18.024679538821637 18.235718551932262 18.400139404142276 18.501189921577385 18.529965940954202 18.48631408762951 18.378248799555614 18.22035215946776 18.03156792166828 17.832645407615004 17.643472696030717 17.480662290681327 17.35581828928471 17.27476046038193 17.2376653696275 17.239835797071855 17.272801627272482 17.325637351764552 17.386525145580958 17.444511762808876 17.491141174613464 17.52143866859123 17.533823025665708 17.5289591809077 17.50809160180906 17.47167310563277 17.418937206115167 17.34856550753988 17.260090506134944 17.155422407306556 17.03994694980783 16.92286249148849 16.816639248246695 16.735640017385062 16.694088615823986 16.703737488121487 16.77170694642128 16.898953181281342 17.079661339771224 17.301652285364973 17.547744389897765 17.79792716111931 18.0320861067336 18.23280923360971 18.387604673365423 18.489882461755954 18.538433370321297 18.53574260283414 18.48595238652827 18.393324166798717 18.261646171144122 17.860283380648323 17.68756302839214 17.500422827746174 17.303254658153616 17.103344239546026 16.912141739700832 16.745331237169403 16.620958084386707 16.55559354842783 16.55949527833546 16.632403970301993 16.761629606155267 16.923440333349493 17.08775565536677 17.22508631083769 17.31383462958343 17.34574218924586 17.327669848790674 17.279014570210652 17.22554279514182 17.19164676328222 17.193494842451067 17.2351062107427 17.30828312035386 17.396031515543562 17.47803340750272 17.536219872414808 17.55868430906906 17.541007116727723 17.48520769687719 17.39747835197955 17.286123629339016 17.16061761703762 17.031746976324445 16.9120162430037 16.815296598615536 16.75514243745718 16.741968416766976 16.779953369382103 16.864822657822472 16.98347609068156 17.11587272092567 17.23886471864075 17.33103978798557 17.37730375529002 17.372022087760534 17.319991837775145 17.235138963925465 17.137384189191685 17.048433254473842 16.98733390408358 16.96662628867446 16.989873138734296 17.051214977157294 17.137206164382388 17.230538317973682 17.31458683903689 17.37738730988633 17.413882734808496 17.42598434400678 17.420803766225585 17.407956982420476 17.39691246106481 17.395027518235803 17.406449872652484 17.4317370930856 17.467999222918845 17.5095186646722 17.548928896046252 17.578959260089515 17.594478417057978 17.5942824056901 17.582007260075265 17.56579508937442 17.5567822312417 17.566855091475034 17.606243213340452 17.681401877037963 17.793459133404088 17.937435931730455 18.10248910327968 18.27339818256229 18.43324321410648 18.56672643666383 18.663142556322914 18.717943484026925 18.73233689492912 18.71122602274647 18.66058456172572 18.585596042951256 18.49039698953745 18.37930873212886 18.258578188453342 18.137373066033078 18.027222021873055 17.939951759827082 17.884935326178894 17.86673861557598 17.883983427781452 17.92968236873138 17.992768371875208 18.06023902784367 18.11929493616463 18.15901752319412 18.171425353640508 18.152043889855086 18.100249226849257 18.01949584999696 17.917224258125064 17.80407699395944 17.692281307004755 17.59359255549724 17.517609565265396 17.471158658924768 17.458782523740243 17.483607378492792 17.54756529734642 17.650373486678223 17.78757852863397 17.948803531606945 18.11757325791833 18.273546656115798 18.396880600238145 18.47331419772764 18.497996578772824 18.476437291153463 18.422117642006945 18.351689677994266 18.279603078281706 18.21403838523885 18.15530713399412 18.096884142152255 18.02843010898537 17.939740763812093 17.82447667811996 17.682682941271977 17.521456674806913 17.353640243511972 17.195013456632644 17.06093861622059 16.96356932873343 16.91045620255916 16.904742353898158 16.946406573720044 17.033550098878585 17.16281216219311 17.328632744208388 17.52191284948699 17.729145013148504 17.932952909009874 18.11425426653 18.255398816095397 18.343167131235656 18.370691496365698 18.337976467832654 18.251293624703596 18.121947735000145 17.964758253751523 17.796351709627455 17.633287993932907 17.490173799169494 17.378059633282586 17.303393245578917 17.26762565295127 17.26740703542393 17.295297904624256 17.341000004285917 17.393099548539656 17.44110586975983 17.47726992422125 17.497541942137023 17.501273172829205 17.489822019523277 17.46477248685765 17.426655402359348 17.37475347727377 17.30797634858392 17.22629125884313 17.132052621291695 17.030766008785154 16.931120656000584 16.844325289983882 16.782855301612276 16.758761791021165 16.781774282412396 16.857511705925393 16.98612284152896 17.161599289670413 17.371913609236824 17.600084791559105 17.82620744690737 18.030284829071416 18.19535931562507 18.310113322552482 18.37009998307554 18.377201023173342 18.33762622731449 18.259348092611724 18.149953110212596 18.01548317162904 17.619686111126146 17.483907256187486 17.344698143400468 17.201884378547458 17.057492420458434 16.917834152996193 16.79440564762149 16.70266037570139 16.658476255499124 16.673211383599764 16.74904266083637 16.876386842760603 17.034598888016408 17.196108650354144 17.33303860350202 17.42444460915873 17.46192352009554 17.451670547073658 17.41216177366778 17.36813993115918 17.34288865274992 17.351338529027032 17.396153571182133 17.467813065573573 17.548304675345506 17.6168868936641 17.655840608319146 17.654373125989146 17.609756760052385 17.525993008643116 17.411242505970552 17.275498319999226 17.129432593941214 16.984391766312108 16.85274375558923 16.747607042835348 16.68142198570771 16.66352864697526 16.697497602173893 16.77918684100433 16.896344731182396 17.03015009079416 17.158520853585948 17.260486640071388 17.32056448507187 17.332028056158528 17.29825147329958 17.231833064900627 17.151757357738816 17.07925547043055 17.03322806240683 17.026167309097286 17.061497250757945 17.13306699448101 17.227060196758273 17.325861817488367 17.412725611428296 17.475784252584205 17.51023461444894 17.518281067461295 17.50725373042241 17.48685359502081 17.466528259143043 17.453626502463088 17.452474005961147 17.46414205445358 17.48660980621415 17.515207499901507 17.543461318206543 17.5645044938449 17.57298603275605 17.567036326784944 17.549611609833327 17.528640115246994 17.515801324581503 17.524240896630655 17.565795031493963 17.64829543429846 17.773396633518818 17.93530615003028 18.12083344968449 18.31112045311594 18.485055364653817 18.62370488204495 18.7144473617905 18.753314014672508 18.744616069843048 18.698079401914843 18.624845373621884 18.534175313540448 18.43221238519689 18.322974657444345 18.210561467536913 18.101020799583527 18.00268684193959 17.92475068321542 17.874774290159447 17.85630482551384 17.86757181967715 17.901684130923254 17.94813754687995 17.99504308724807 18.031368402251736 18.04862520834537 18.04175900339603 18.009360188636965 17.953516107112552 17.879527777441446 17.795417373582797 17.710958696765484 17.636133571229585 17.579384910227052 17.546403354221475 17.5400498541737 17.561360878010614 17.610833684679353 17.68890720144444 17.795003894770154 17.925449967351337 18.071477206577768 18.218778958935502 18.349524049079914 18.446556178948168 18.498304726175995 18.502359790462222 18.46608636805925 18.40390123302545 18.33226736315163 18.264338828524313 18.206144104797442 18.155407349217512 18.1030874584793 18.036913485794635 17.94577290170085 17.82370983589134 17.672439505980773 17.501676438695455 17.32719067667867 17.16721354482391 17.038364975505576 16.952422567617496 16.9148920615767 16.925579990024712 16.980524852408948 17.074113239315533 17.200281053135473 17.352363044233336 17.52204171006698 17.698429135842964 17.8682326051358 18.017272816029934 18.132802617059717 18.20564869331691 18.231399571341 18.210472896123957 18.14744422584178 18.050162148909596 17.92892695959568 17.795675037988957 17.662981409328506 17.542817288232065 17.445202265519313 17.3769862700341 17.34096205160089 17.33545680290836 17.354557725264907 17.38912109748047 17.428557929708543 17.463053476526564 17.485540239574295 17.492682419930784 17.48449268237454 17.462847245510684 17.42971508645635 17.386014898236887 17.331594105403347 17.26617412002306 17.190646895371003 17.108077579038046 17.024070922423338 16.946501679791012 16.884771964892586 16.84874433273866 16.847451492201692 16.887701546949863 16.97275482738203 17.101270477357456 17.26669989228842 17.45729906653678 17.656961094580435 17.84703689467456 18.009081213849676 18.128031159550847 18.194919838514075 18.208174302945483 18.17300380767248 18.099158159427343 17.997975322921057 17.879764642457783 17.752180204084283 17.403880531940246 17.31169925616275 17.22561946604269 17.140729067794563 17.053696085750243 16.965632736525315 16.883809788869883 16.821083588400366 16.79269226937643 16.81124395922019 16.881630172893278 16.99779117157055 17.14269412234519 17.29184189695223 17.419473741704923 17.505664144262592 17.54205795688893 17.53423857408878 17.4997577226257 17.462359946885158 17.444321107945814 17.459493624382404 17.509332355178678 17.583026957650493 17.66137928609215 17.722814016592466 17.74933801693821 17.730540010096355 17.66469817951963 17.557307701632556 17.418291399189904 17.25938764513977 17.092676199018793 16.93028519049675 16.78458382054516 16.667985492123243 16.591852832018837 16.564593958539476 16.58951876089473 16.663209451881386 16.77506568904038 16.908402754093437 17.04308852333658 17.159267263048555 17.24134121228627 17.28121059965551 17.279914000842652 17.247231942394453 17.19934684173174 17.155099168337983 17.13165771032268 17.14055734990775 17.185066873585814 17.259649192175868 17.3517680589014 17.445549027547802 17.526122913133474 17.58323665597582 17.61306942414099 17.617962621698 17.604564770106833 17.5813440867435 17.55639311613127 17.53604916658798 17.52434072048938 17.522916423000943 17.531082688824878 17.545841313055725 17.56216601753756 17.573902851717794 17.575460607136467 17.563971307653958 17.541165909789587 17.514142731258556 17.494575969471367 17.496488663170926 17.533159819898135 17.613873625938254 17.741143742081633 17.908970604947207 18.102690009578716 18.300879601998155 18.479360063900472 18.61653264418162 18.698479358455856 18.72196870355684 18.694123991461186 18.628872390539215 18.541733606271908 18.445220472111448 18.34667952736808 18.24904610680158 18.153507752362234 18.062278241988547 17.979929862967037 17.91273175235827 17.866542365475883 17.84442475055155 17.84510216249413 17.862845459025607 17.88873851616164 17.912783272380945 17.926104611289833 17.92260745366922 17.89976088455046 17.858584028070002 17.80316388927562 17.73999348891019 17.67715662860989 17.623195036336313 17.585628595344904 17.569503013645523 17.57664007133058 17.606092631738104 17.655649158267007 17.72350594801629 17.808972769219118 17.91155773594683 18.028764805700654 18.153860744338985 18.275156240200328 18.37775624864033 18.447505743179473 18.475614247641257 18.461884865436964 18.414968366865093 18.349386579622 18.28050893722241 18.21946473165626 18.169809869483505 18.12689814376839 18.079888746087388 18.015583584535143 17.922934370123667 17.796992990661018 17.64122655791747 17.4675046885454 17.293699531684144 17.139584678636634 17.02230825659933 16.952877920300484 16.934711570128083 16.96449104219219 17.034636117497612 17.136116689358566 17.260354393931777 17.399629841100516 17.546337317885595 17.692065336400848 17.82745038014512 17.94311459482913 18.031221464425137 18.08679967657909 18.10821086632402 18.09673782158201 18.055774949963375 17.990178919216707 17.90601659888626 17.810541773967543 17.712043496694534 17.61930467516131 17.54063899927209 17.48266210702897 17.44905191695584 17.439617715989293 17.45004348559967 17.472605604298533 17.49788421501429 17.517038346281417 17.523841303392118 17.51566532537689 17.493062166135957 17.458291129597093 17.413673248780473 17.360658224044716 17.299980596684065 17.23260960478196 17.16080765282407 17.088702905709585 17.022183715286577 16.968289595530173 16.93438336707991 16.927283830475393 16.952406209722415 17.01292228312195 17.1089897646915 17.237133204755466 17.389875909295167 17.555776200152142 17.720111111894294 17.866454965646934 17.979169235013725 18.046359680666995 18.062413306891543 18.02914782319895 17.95505428489209 17.8528890215359 17.736515151927314 17.61803055072012 17.505848565524314 17.239938557362915 17.19236587606364 17.157744553300933 17.126859518181288 17.091581250102767 17.04836918063945 17.00069000175829 16.959037966783118 16.938064441687057 16.951565508692088 17.00707811621377 17.102100219592682 17.22341796570739 17.349983656685378 17.458622951924873 17.530875204938187 17.558753708720737 17.547384719656826 17.513422728318996 17.47960464270262 17.467243973242738 17.48925557320511 17.54608434774567 17.625785377895305 17.707958447470055 17.76991077890446 17.7928065508043 17.765841471930017 17.687473941188152 17.563989301006085 17.406616549487346 17.22866452728256 17.043671612181925 16.86472544791565 16.70441702424104 16.574685229859536 16.486072363356033 16.446374971379164 16.459049487170724 16.521894945901362 16.626518408151373 16.75895600531092 16.90158413535006 17.03610623959508 17.147011817915537 17.22464181006386 17.267017524301504 17.279917984581637 17.275174653093497 17.26759579902934 17.27123337924608 17.29587148022646 17.34464787124664 17.41352959022726 17.492861198561535 17.5704854261792 17.635324269771296 17.680160318288685 17.70278300951389 17.70542633939738 17.6931072505232 17.67175779423642 17.646869669263832 17.6229095322223 17.603286492901187 17.590396017742375 17.585348389249774 17.58736855872737 17.593304697032266 17.59789276186352 17.5951833249821 17.580918058706267 17.55500767056185 17.52302750784766 17.49597567494295 17.48821959130964 17.514182100316415 17.5846082012509 17.70323852446875 17.864618144030768 18.053717305379017 18.247903103860477 18.421321820713317 18.550872328806857 18.622017647512383 18.632303986657746 18.5910812791708 18.51543211387746 18.42399857388535 18.33132060892386 18.244918962446228 18.16588143102793 18.091989354011268 18.02138933312514 17.954926800068208 17.89627047511873 17.850183825104455 17.820090970256615 17.80617605104221 17.804797021849684 17.80933325560233 17.81202581726027 17.80607620867755 17.78729357116381 17.75487704361686 17.711334037340034 17.661832730861658 17.61330105246357 17.573374536696342 17.54913045055964 17.545661228072383 17.56488250015369 17.60519800876156 17.662423656700543 17.73171477508081 17.8095473956343 17.894590602752942 17.986814211492618 18.08518143380506 18.185215338836606 18.27802358209439 18.35176389133148 18.39527551823411 18.402344670872615 18.374544709431127 18.321155020922127 18.25603884434711 18.192777050974858 18.140045108767534 18.098920367356484 18.062858248064035 18.020081646757355 17.957496060009532 17.865010911927715 17.73915542736037 17.585030158162574 17.415976616867475 17.25092516805463 17.110094759618015 17.010310683547345 16.961397656435004 16.96475040801005 17.014370373824498 17.099702792881235 17.208948896066765 17.331505539235184 17.45882705441713 17.583948828955727 17.700593297370542 17.802796090819413 17.885394538491784 17.94497969052737 17.98055911890268 17.993417954383645 17.98625746599861 17.962167340594572 17.924029341474625 17.874593768412957 17.81702010897316 17.75542588766785 17.695027301177667 17.641668567162185 17.600777479055516 17.575994915585376 17.567907159375753 17.573412927668823 17.58615869734334 17.598099070042057 17.60169913329447 17.59189838735608 17.567000330344545 17.528187131321626 17.47809608741878 17.419372759311543 17.354021368300298 17.283779802672992 17.211073827272415 17.139805260695095 17.075448113664795 17.024423778698008 16.993109514627296 16.986887304506563 17.009445462299453 17.062333789204917 17.144689214070656 17.253068806681306 17.381365157346025 17.520818552207853 17.66022789709754 17.786589945947895 17.886435025166286 17.947923871747005 17.963331509537863 17.931115633481618 17.856686627949152 17.75141734235387 17.630152918044388 17.50806568460847 17.39780297578322 17.307520514748457 17.14607053515364 17.138780409689392 17.1476272013968 17.16008888414661 17.164423189366612 17.153568089871257 17.128051067635027 17.096468392579236 17.072926221009517 17.072123122869343 17.103811343683553 17.168681087471793 17.257202112742092 17.351935391665005 17.43269108144979 17.482963227153824 17.495544631306554 17.475320534781748 17.438057933944968 17.40538041618436 17.39755721442707 17.426617117544474 17.492199022233375 17.581493964542947 17.673083963063636 17.743106760875968 17.77151589218947 17.746457013321933 17.665746244705495 17.535643295090587 17.368031786527858 17.177397869231392 16.978619812124318 16.785857644628315 16.61220132346753 16.46949120840212 16.367867395304955 16.314922693645002 16.314609911542828 16.36620779301474 16.463714479912863 16.59603674602139 16.748229589786337 16.903761366803593 17.047391079688712 17.167931362132624 17.260123100487625 17.325105345873304 17.369385913513078 17.402610525089788 17.434697113955416 17.47306084381807 17.520701686707444 17.575763339985656 17.632714081758724 17.6846575221165 17.725786689134523 17.75297846749927 17.766031274783433 17.766771375875543 17.757759613731306 17.7413659277748 17.719600932204 17.69456954059621 17.669024272671788 17.64641808751423 17.630123582936516 17.62199751389702 17.620991936076315 17.62273355210301 17.62069040949096 17.608788892471676 17.58452837725076 17.55125805875789 17.518570125089575 17.500534467237213 17.512289857152656 17.565943347853228 17.66677770285016 17.810647593960514 17.983336072936964 18.16245866049928 18.321991885670236 18.43858005158813 18.497767183251312 18.49784774514258 18.449637706507538 18.37206734826743 18.28535159105949 18.204590570469737 18.136346812925353 18.07919689365672 18.027344040620477 17.975135976980052 17.92031143255472 17.864807121265567 17.813294456770187 17.77057145756481 17.739174174903955 17.718190820026415 17.70359060442026 17.689744182363004 17.67142256114675 17.645506083726605 17.61189097700565 17.57349552766957 17.535601060903772 17.50483653707176 17.487969667278435 17.490541245565282 17.515483354695405 17.56214291124198 17.626282092548063 17.701361489567066 17.780762709814596 17.859960220549105 17.93748252756604 18.01402577362258 18.09008104462919 18.1633662105527 18.22764708119052 18.273931546126622 18.293763536366672 18.283099077459404 18.244758785014607 18.188068564135644 18.125701622101456 18.069103212135744 18.024449013307734 17.990653508336035 17.95992722586692 17.920428079305836 17.860050482155103 17.770316104439324 17.6494397961343 17.503808836375292 17.347384367716963 17.199002666574952 17.07817635005137 17.000555515702935 16.974431691420886 16.999380138195686 17.067380382771812 17.165812468636545 17.28102789378203 17.401110448282033 17.517040582854204 17.622417993084913 17.712608676617776 17.784241611387543 17.835419914948933 17.86629338373245 17.879295836804168 17.878588100564887 17.868827737005184 17.853856265708295 17.83594378924675 17.815887568830316 17.793800765453202 17.770126173628995 17.746366963608775 17.725177783716102 17.70970501983009 17.702352162834764 17.703431862997043 17.71033804439636 17.71776944926593 17.71909954040125 17.708388797862177 17.68213145789356 17.639924236192467 17.583840495022017 17.517037794113193 17.442534023948937 17.362881703099575 17.280799621273562 17.20016088035585 17.12653531661111 17.066830754297804 17.028161622566444 17.016467777161367 17.035405936700307 17.08576277741145 17.165359457644637 17.26929292847682 17.390363502980044 17.51957490551039 17.646636479843533 17.760490340251078 17.850024318166575 17.90519548795479 17.91863576702391 17.887445609703736 17.814525660546185 17.708747790390614 17.583648894833743 17.45494832484729 17.337650638835054 17.243517547118564 17.17934053156161 17.12825251247653 17.153150046054233 17.193198027771505 17.233915174769233 17.261547789071464 17.267057807401198 17.249231730868676 17.215420451957115 17.179240445009867 17.155859289320244 17.156552811544273 17.18453097585606 17.233527689609815 17.289661956519744 17.33601222934131 17.35848429900689 17.351066024036484 17.318603127579635 17.27590909748902 17.24324650764255 17.239587539728426 17.275990962267933 17.35145594793248 17.45267456694978 17.557616445963667 17.641503196869547 17.683034235183 17.668920958312665 17.595678045223213 17.46875005419673 17.299926786179903 17.104311183299714 16.897836807706447 16.695745382668502 16.511884415792007 16.358412581203538 16.245524177023828 16.180980330636572 16.169419301727334 16.2115676316616 16.30360823356489 16.43706038006041 16.599496742930096 16.77618987991922 16.952407262245803 17.115760223292657 17.257951538413888 17.375486367237635 17.46926116580508 17.543243841883953 17.602643085258116 17.652077996026115 17.694306085860028 17.729944292099848 17.75823433055454 17.778378028972543 17.790631223721263 17.79648803320907 17.79787719804925 17.795947059632883 17.790291692044974 17.779198641936354 17.76088094860488 17.735076330045565 17.70415099238874 17.673016532218845 17.647666385979136 17.63278357966533 17.629420916160598 17.63392789071026 17.63890331440537 17.63607073210141 17.620018221773616 17.59124912780232 17.55724631924833 17.531089775259872 17.52808990659861 17.56146403556974 17.63819371576269 17.756066902287323 17.902746920572763 18.057483433670036 18.195555026619225 18.2946017058242 18.340968933790982 18.333680651243284 18.284232651455923 18.212024909288196 18.13720337693442 18.073899921320727 18.026621161863094 17.99095011749505 17.9576764403628 17.918062341395164 17.867820402691347 17.80838745854772 17.74551977472005 17.68634398820023 17.636369978305478 17.597653092761814 17.568602377973043 17.54521896212887 17.523064197253927 17.49912477707504 17.472955626781637 17.446892391401462 17.425491758192155 17.41449333300085 17.419519728248 17.444647296969993 17.491071063311463 17.556303484446495 17.634420578882093 17.717567641027692 17.798314913188108 17.871870260837145 17.93703407762568 17.99530412971912 18.04849794097761 18.09615050315932 18.13422626056902 18.156098668207434 18.155525418878682 18.130143012428068 18.08356142964236 18.024792185471842 17.965139892019955 17.91398851370159 17.875365069969792 17.84661276532728 17.81943736907709 17.78268677669576 17.72585599014747 17.642389315027323 17.532075298501383 17.40201383857964 17.265824489074628 17.141092919135783 17.045541272231958 16.99290153385013 16.989717981995444 17.034109181727448 17.116868567729302 17.22440111842993 17.342287312451774 17.458123076772925 17.5628177690655 17.650440740270195 17.717428365382663 17.762056802338748 17.784558650208545 17.78755777850254 17.77614347888436 17.757117813973583 17.737511625810917 17.722946401072956 17.716519169712182 17.718608171780758 17.727564546296122 17.74091038301915 17.7565180926754 17.773292617239978 17.791077492667124 17.809826937821967 17.8284547838916 17.844018386800553 17.851822057431967 17.846572633332244 17.82409957965876 17.78275793099934 17.72377025662121 17.650395160819958 17.566535433402723 17.475722345655306 17.38110082167961 17.286309105067712 17.19651256450554 17.118747591927267 17.06118808697622 17.03159632194774 17.035613977457487 17.075502093357645 17.14960782796595 17.252514028394387 17.37568144830253 17.508388244340154 17.638798421896993 17.755015149876897 17.84604031251009 17.90267933058154 17.918508062955777 17.89093537153899 17.822149557586904 17.71950538696814 17.594922026363033 17.463196746611192 17.33961056823208 17.237486755444774 17.166265639908826 17.13029557048171 17.179074969812294 17.226553888652397 17.284179717529717 17.33690535472528 17.370658251637295 17.376096955597177 17.351597187791846 17.304017119107318 17.246580246038565 17.194462339911002 17.159681877230078 17.147162054090987 17.15332413045649 17.167635671936605 17.176584757476242 17.168828010172973 17.139863792087063 17.094597477615253 17.046695808285325 17.014651857449664 17.015711262996312 17.05972956707442 17.145165435871156 17.258637015687505 17.37811061989963 17.478472359697033 17.537520570541464 17.54053853358522 17.48238894344244 17.367086151695993 17.205605824300473 17.013019137130712 16.805882584229696 16.60037683719076 16.411238997697044 16.25125673551191 16.13101853833314 16.05866426102807 16.03948138784278 16.075332573759766 16.16408037491137 16.299332035443385 16.470837815135194 16.6656692680996 16.86996411957891 17.070761726513375 17.25743725848233 17.422458387622694 17.56146063735386 17.672806488674418 17.756849854961246 17.81516300633997 17.850019777343846 17.864353890446672 17.86212437304794 17.848637307435304 17.83021547633 17.812920716566975 17.80070192602001 17.793907783236104 17.78911962869677 17.78065598587092 17.76323691662257 17.734680646513695 17.69744010104936 17.65824533895827 17.625861747171854 17.60773111570972 17.60679125860514 17.61985004571034 17.638387657035523 17.651681182395613 17.65110131204748 17.63386383419973 17.60474557232514 17.575147821446016 17.5599044525464 17.57289748227161 17.62271051141648 17.709410727335417 17.823343577419948 17.946560411638984 18.056972271525737 18.13441547677936 18.16679278714389 18.153931660083508 18.107334762881727 18.04560008078348 17.987259888712963 17.94406231348683 17.9175273536148 17.900009212836732 17.87936655960626 17.844825271133203 17.791420476623777 17.72143359194328 17.642783468673876 17.56557143601135 17.498448606060013 17.446179683377434 17.409042413300714 17.38390876530894 17.366289697195075 17.35243641535882 17.34077723485669 17.332381972600047 17.33054418584612 17.33976510743429 17.36440996287569 17.4072580311608 17.468237377328116 17.543780595647508 17.627238982702764 17.710471927059118 17.78615898406974 17.849884803455783 17.90097886297886 17.941596072517505 17.974410644025227 18.000111466163034 18.01614016463294 18.017555477679156 17.99974570432525 17.96157559354593 17.90716221282295 17.845142230934854 17.7856570458005 17.736502874759136 17.700239703933924 17.673414660301006 17.64795889391743 17.613965329022573 17.562808048686268 17.489790600256562 17.39584671463702 17.288026293577378 17.17861000212968 17.082871018099038 17.01583239524686 16.988767780166384 17.006450111162767 17.066060005906134 17.158154491116896 17.269323179574098 17.385480943958694 17.494552574851593 17.587751426975295 17.659495202280063 17.70670684014934 17.72836922891994 17.7257133952152 17.70273012633415 17.66631792689617 17.625546138711027 17.590042661009672 17.568021288200487 17.56465032043062 17.581294648602977 17.615796496810095 17.6635867469804 17.719158692449966 17.777342293325347 17.833922178465077 17.88545215468626 17.92854450222174 17.95924022197857 17.973056619968343 17.965891295136803 17.93536008194665 17.881772327089234 17.808104076841 17.718957056932958 17.61916820862076 17.51297250788107 17.404230393498082 17.29747535833033 17.198950473305917 17.116787419632676 17.06001327785912 17.03674351340017 17.052288390850073 17.10781044041255 17.19981178889368 17.32040558882873 17.458190892603298 17.59954993821817 17.73019543632857 17.836772563968903 17.908321250485475 17.937470623707092 17.92131864926445 17.861953289142548 17.7664822312426 17.64636837634648 17.515963023506757 17.39040970732962 17.283392854162084 17.20528694622939 17.16202529888753 17.15462198441141 17.27929678668855 17.340421728639914 17.403550525953158 17.45421053053138 17.479448188500346