# vtk DataFile Version 2.0
Really cool data
ASCII
DATASET STRUCTURED_POINTS
DIMENSIONS 200 200 1
ORIGIN 0 0 0
SPACING 1 1 1
POINT_DATA 40000
SCALARS temperature double 1
LOOKUP_TABLE default
19.555112343465648 17.43544633361176 14.8539338441686 15.087253287204774 16.103214691440787 15.417793267444399 15.677604723759243 13.872258586321255 13.609965863714212 16.880570316996685 16.63984389794993 17.253444257956208 15.306153449399924 17.351336467139678 20.88026197680218 19.798945229069876 17.122661963818075 14.197108825781035 14.237723729740283 16.310280732770106 17.98610524492263 16.459775150855908 14.302819842953573 14.52865969461667 14.206953566362849 15.74189080907775 17.777519971244132 17.062884030273942 14.113785439672418 13.369277746731768 16.037761186767007 19.529254456390216 20.045982165663357 17.159074405931225 13.67477399487751 13.330032728650524 13.284591802721037 13.585846530525115 14.001560075326198 13.367374783088156 16.063718811290805 17.674390397912404 19.03769172058066 19.22265387094752 20.68616918810045 21.460941694731332 19.906510795597384 17.857252533956427 16.34180852832213 15.815973684288485 14.550706536189338 14.100508821210488 12.734458360244782 13.050255016333818 15.61543878970971 16.50701240067159 15.26472353965546 15.006512734411963 15.586490352442812 14.956217387867097 16.002211816017805 16.590829370882485 17.57655858639235 15.925160531100142 15.172046852558124 15.814481540004154 15.1983162559356 18.831623464822922 17.816808963016573 17.56143708393976 15.160213387415324 15.431795930212076 14.912104274241102 15.912891202811165 19.52823093760083 19.568347742115105 18.887362428215837 17.2793911159988 16.6558174101638 16.63447585354635 16.063403604752747 19.89562643630338 20.77921233780462 19.893825341974487 19.83656169489116 21.553026403829513 21.70575135446415 21.321669081475946 20.682110291655704 22.45107581149785 20.981829672468145 20.658792195456957 20.257143545808248 19.20620125205244 17.930253969971528 14.58546306903497 14.048046685805776 16.48557053074972 15.576122133043505 17.364606907761797 18.371933642776053 17.55943068834335 20.277904488459562 20.79879076917152 19.41488931083746 18.281729619353595 17.62290425057229 19.971511309008253 21.358309113399095 18.926102614032615 16.15095949079059 13.503530985610121 13.892418664720465 15.921814460053294 14.690528791204777 14.808957712362114 16.212527401912684 16.483369950581903 16.83899634308649 17.111388370098126 19.219832723089976 19.800285407975615 18.91494237821178 19.893981502194865 19.786315991642912 17.02311418495304 17.382613327768443 16.514205834352506 16.75433559534001 17.63846968884994 14.639835524635071 15.27457262813908 17.396532772086157 19.89214016659869 20.287339441591843 19.200623844338086 17.389632873487816 17.923177137871036 15.155197394048866 14.414031234453669 16.836864233505462 16.23379392319695 17.13165506676297 16.889658707334867 16.59986505144847 15.563692938138237 16.468087785875323 14.647039828278464 15.350987918265679 18.04471476479727 20.91265809523247 22.391104559061894 21.22343756632983 20.433119407505746 19.093314933843345 17.965161845117475 18.444502723010427 16.899635072803335 15.233325182503123 14.41052010387625 14.224235429479938 17.169731075423275 17.998699498224575 17.95705157464252 16.94796172084733 18.07482566477867 18.47734559886152 19.07429057461127 20.2995159481958 18.036677161115044 16.16748969515621 14.603393862213771 13.933116359264677 16.071350961971945 17.404265606084948 18.741867869404512 20.264534030324423 17.343157709785725 15.662210623013827 17.12503821515692 19.149607680603665 18.158799187179593 16.62705578314169 16.312742344142208 14.142359543119241 13.30520972563461 12.962162955036291 13.546049923617845 13.940904383528714 14.554230099844805 16.97937906317698 19.152928342112165 18.250985408990243 19.99492058167368 21.338066323022957 19.507289563257107 21.464503290529397 20.894282973204415 19.32231865694074 19.76683009003203 20.272111616454232 16.962691776245443 16.46298283759778 14.523066380811885 15.017843027207118 15.253636959687602 12.7017503020799 11.718213763474257 13.465579784810457 16.73316392559047 15.806748930520426 14.31576425055563 13.389517456624395 16.338656843294363 21.252817562054858 20.208573228119445 17.243711046709272 15.329457143317338 16.61515345461342 20.065528879327697 19.81102603963488 16.55115301229558 15.979150916368948 17.411760406842966 16.35613884234295 18.44354236433194 21.157736045894804 20.143394783055832 15.125925306896413 13.423110641394429 15.930596629463162 18.930966001143485 19.650945006479922 17.010057141470174 13.225862715895282 13.201933205954367 13.736619948295306 15.344381259738935 15.168600534329222 15.02340838604342 17.217167573512253 18.90305645372321 20.81802279351037 20.350736696000173 19.223303051774952 19.613186354027697 18.62569571224087 16.8296740298301 15.61844028161217 14.10427019608885 13.101639806234944 12.496508815634186 12.416869285857505 14.120340529380583 16.166643486551372 15.745834100793104 16.28841633198213 17.853811862658617 19.00622066433438 16.171856012238383 15.011198320820947 16.57785845115961 17.134427871218858 15.79233651012503 14.601428892785885 15.430781481585532 16.378610539938975 17.59092193873374 15.557891792306252 15.333585804862178 15.309857470145033 17.486861637067268 15.27375779516368 15.404563626443911 19.83820570927599 19.869373517524647 18.351019832891225 17.6682000008945 18.4970347179897 16.061150392870964 14.576380391539772 18.663165764411787 20.818045355534494 21.504177718393088 21.950088087568645 22.127209553185352 20.845083073806137 19.745060758551865 19.245278112487494 20.75350111670696 20.23279385926061 21.372383438050495 20.707085524774815 18.451741794175256 17.469199221255163 14.334181467488516 14.801325078858236 16.004707718580324 14.155586502204397 14.262911445650971 14.869946016420885 15.799081561599545 18.488033720392746 19.49354851760088 19.269278830097285 19.040031595929474 18.94785591553398 19.739821105916626 20.711306678751065 17.6271653093351 13.861691483745819 11.65540796951944 13.425766410979836 17.853114505051256 17.64534147230949 16.02344218276633 17.351481742035 17.03850089695282 15.686852151574968 15.393797872833833 16.37674482134771 16.73595414411989 16.182746823098586 18.633253767761474 20.07354059108209 16.70625928645932 16.703477266961826 16.96384073427072 17.42079693047472 17.229128537070363 15.192420732240766 16.463084284125557 18.056185841618365 20.65501819246303 21.155831323295587 17.706150824820693 15.569258878050702 15.87798838773576 13.852569641161013 14.9503970824549 16.037519300809638 15.486636692428107 15.347216872483477 14.367145655362332 15.006414682241617 14.400946188691034 16.822173928218916 16.607725986631664 14.913105128589448 16.302374174508735 19.08109180860444 20.29924582534048 19.737583770024948 19.357660918947715 15.684381442044131 15.162693031682814 16.49230142286845 15.002415101804775 13.486296739625695 13.575274778399946 13.326416762612286 16.693289111682578 17.627584842551315 17.025086825571233 16.17726382065709 16.3856377584336 15.875991990664184 17.19964556979388 20.407319733030935 19.331984745151455 18.490199726014524 16.407821055061223 12.843859382073997 14.17698170471563 15.978096135914868 16.504859716056178 18.94501294279216 18.10667447328137 17.280437450201813 16.343264493556266 18.592406986381658 17.884450402467245 14.588819167163843 15.335013142766332 15.643844829693721 14.492708487412493 13.267937028363882 13.647569247679025 16.62307420793616 16.705094075716808 16.951393642187156 17.092156806689363 17.406514815898568 18.742571567331975 20.103870957102004 18.288015179004844 19.689914179230055 19.463766593431583 19.02149599111586 20.553259994574628 20.088319048545177 17.368242688669994 16.824899389454735 14.59997624323403 16.602902996330496 17.523187649665434 13.196892626714813 12.004222394799534 12.965190309825406 15.435552303508333 16.415669965558262 14.852115376268738 14.991302041413004 18.034864382924205 21.601048650837186 19.290584938860913 17.74799716108557 17.76740973712978 17.33600882669644 20.436655741861337 19.113814399129048 16.319166789034366 16.62024122180534 19.530006962896223 19.821146018437904 20.875551731573076 21.86464117625016 20.331768657342057 16.073396217111746 15.947050470969236 18.884560475472185 20.20120767951071 18.672890758088652 16.974948701971947 15.36193730417803 16.865746257777534 16.389655622636326 17.43815075250442 18.306997632484336 18.356314749273043 18.33729124424701 19.91635563835868 20.562059724069954 20.408764889129593 19.937431824233226 19.690923574798287 18.367148509208743 15.920069188207892 13.777748965786186 13.15143044250026 12.927514880097924 12.59186407926157 13.450589432164684 16.427991922004672 16.983579199164776 17.15688963733186 19.258281588286223 21.2768689432102 22.058863802663566 18.864825276907325 15.9978983529349 15.552591278343831 16.033401063684096 16.366410944089576 16.77444338213947 18.17194537207928 18.352771691361575 17.29783223777404 16.899223677945372 18.64779431779402 19.013495186313648 19.497260340335636 15.706515608199306 14.622842004157578 17.765831266054356 17.467420754109863 17.062691307791848 18.431031751092537 19.257064959323795 17.10171668551742 15.5731875745783 17.79213109690407 19.69541327887502 21.990487289781907 23.084850674781688 21.779825011732633 18.322590558472225 16.137749419086603 15.260299626207537 16.933171286234312 19.4850842315748 22.218256898079456 21.066539094891112 17.075832197953442 15.451274927166189 13.674116187318466 16.26634396404406 18.068730576393296 17.26423715544693 16.224725907416307 15.959995176154402 17.198359902778222 20.376125938176436 20.21490161374534 17.17788439958057 17.92430768139915 18.76704022221727 17.397699197126347 18.177921304002133 17.772184307402004 16.12147125065732 14.301338545471062 15.003468209374414 17.612967564760762 18.246305572716796 17.281206542145796 19.00266418912096 18.515279316454354 16.52245943156882 15.76801786350653 16.910961761615987 18.985925479249882 18.353660872449222 20.42099504396383 22.213901660133985 19.565709183601918 17.206155187553932 16.23395717686513 17.278196902117244 17.75011568043283 17.048370000548104 18.410923336477712 19.558902950144777 22.503220470407115 22.897231751529485 20.063954203401522 17.67850812268937 16.28940283808591 14.575494270558062 14.630246591861278 15.965261336486675 14.583907965399959 13.924956098044213 14.165581294204543 16.494472300333175 14.980506906503601 16.226581192057463 18.4790772794254 15.297610464704931 14.806290491371893 18.667518346568603 19.567580879158754 16.795277618311864 17.50624980721085 16.335518477553062 18.754805991611008 21.33323991084257 19.793207440782002 16.761016867953284 15.444569019338362 15.348269922388244 16.5967399648396 14.935689637737223 13.961213408677429 15.030822877395966 17.41890574688308 17.298314830548637 16.892746592482027 18.520884810953472 18.32563443692627 19.6858822461496 18.055490834517705 13.393579471407632 13.656490860109983 15.665068549109748 15.635995411451537 15.795505489623435 15.70448133756685 17.288752394849357 15.322235441710797 15.455787081084436 16.268943193755067 13.136817065191524 13.836918237995851 15.968086872106502 17.47039797942296 17.04203347430626 16.21856445460426 18.898158558043278 18.91190655070322 17.073225383007212 16.95094919814761 17.80807240943242 20.337102616265227 20.791848445326465 18.59027200085411 17.620086052692315 18.282214510776253 19.078930204592115 20.634043132089328 17.80006444249546 18.798956190930813 17.9038922932468 14.903258803945256 17.5211350049611 19.276080470151232 16.502275860953798 15.748269857617645 14.034024899113673 14.220832051380807 14.613217949465282 14.337273260779513 15.085263466051197 16.935036668783237 21.10303471292655 20.681281135528483 20.150596550245535 18.38541289887292 16.631593022557045 18.714353721398613 16.926705816656746 17.419151107551304 18.076699534369876 18.86980148467164 18.568541211626684 19.52164206144987 20.50679140248459 18.336513575280236 16.808912834810684 17.73611614611943 18.817745533208253 19.283525192083573 19.111198450243176 18.69584268684719 17.566713809109658 17.98094250434594 16.587058012376456 17.004459056558996 18.416231400620436 17.756588732536635 18.8654857367621 18.715449791248542 18.128315474221708 18.245882478894377 20.420348585035857 19.43273424607039 17.808457410482493 15.008389503374207 14.297113583468224 15.955034543575053 15.73993789857155 14.311696848315075 15.783186702185425 19.323751675746472 20.0470530221124 18.49055075862219 20.68655319687406 21.52694902790465 22.631899177313848 22.406234618475583 19.821624246172853 17.422142647994686 16.77739909200682 16.687349715016794 16.0926773878739 16.887388025307107 18.403038045150367 16.74484055365969 16.300444485576744 18.684894771387363 20.333217713870486 21.23214394548413 18.352188134357668 15.390295456574913 13.798822691106496 12.96912307200499 14.314386198514118 16.8071127411876 18.111847838851798 16.929032469872876 17.00470271480523 20.3154590243978 21.083130216296887 22.411771963367908 23.098995697775674 20.78875874054259 17.571022418604354 17.304595482590102 15.819142674408875 17.081692503774743 19.62263104498237 20.08051771294955 18.53353027688891 16.719745357648645 15.166740153336054 13.795923135883674 15.562879225054658 19.13544828542405 20.060754268146134 18.53132643066937 17.828446054739697 17.594272372467017 19.477615264076846 18.85441608847959 15.400260884262885 14.614193552639762 16.049498036228012 15.60251290671045 15.379448493566883 17.88576208774017 19.225029023397163 18.14029328956651 16.836590732759973 19.30832818709983 20.179652639543804 18.796924323502548 19.052086936922482 19.652527862891574 18.931809233589718 18.915686355134984 20.962501173437897 21.976316886083296 22.490795133578533 23.696871663502687 24.016210115044146 21.195645768831312 17.676839918153004 17.56271910370689 17.796412549015898 18.163520867830062 17.31650499154141 18.124777624384166 19.23472857621903 21.39424372527174 20.72731501478453 17.893798669671224 16.24854792906109 16.03713900996571 16.671333793429163 15.70221952047595 17.11471781490514 16.700409916800265 15.643470155371443 16.8408258352679 18.532021622979283 15.893072459539113 16.024115462917422 18.83469182919089 16.040062097927652 14.696384690504543 16.922962772888337 18.18243722904651 15.644936090972475 16.014061636744753 17.75203415663625 20.481405428028 22.740485719896565 21.758755862143325 20.28101111204117 18.285136700808756 18.07846259671985 15.944289560831043 14.23498410990386 13.765288651454922 13.968686815792664 15.906190709832526 16.93180555528455 15.874292807203478 15.723001587578 17.35415893284254 19.401604225523144 18.062166440167477 14.91065106042913 15.85465661626248 17.659570393580683 15.790976584067385 14.88625263438157 15.39615691078083 18.542420288446873 18.174684289233284 17.487744488093494 17.819879076768874 14.945521522064634 15.090018085323495 16.20910089220358 18.181980948494655 17.384296489833265 17.048553507132723 18.592276961181287 17.288177799612928 16.303732960215253 18.385322252952943 20.876096200099244 21.872628225929624 20.382350804501673 16.209075902866253 16.260822753568323 17.60176190377465 16.102263127789268 16.35217578589636 13.729486823669093 15.897040711094952 16.391179540001787 14.96881655137179 18.07075191451763 20.429033914465723 19.04345483864135 17.6412725582932 14.809036882615704 15.347664780636718 16.411298591972756 17.843257535927883 17.2142892351633 16.14800641594866 19.94657026151722 21.396851193311416 21.801684320743952 19.857146765630986 16.220222815159513 16.211139784255796 14.469862618516917 16.52607863381731 20.587596852644126 21.612436727856654 20.68496908956706 20.607153117225792 20.956280762986328 18.214890698163465 15.602934094435213 15.45171866075716 16.189548071064003 16.25127896622821 16.30869146813782 16.803255916751837 17.338555538550697 17.264307260171872 17.067502678041297 16.036837599628413 15.901069106860746 14.906493689940781 16.929819529592113 17.0001654157653 16.33947954735066 17.41541687387613 20.027185298499727 19.185619982878944 18.02053746147162 15.908082162324444 17.464665575566663 18.6900443613427 17.38849741212265 15.275656086855362 16.9946196630223 18.361485036479856 19.498156213891576 19.020951232659286 21.936477104239874 21.778362459913122 21.179334804459796 21.505036946255004 19.44502110271763 16.358121183751454 17.88191811345287 19.308502318648845 18.733621969098714 17.038537483972334 17.636187342446426 15.136266515640504 14.140680553255267 17.93749836271659 21.183907821796804 21.351628943467077 18.687645644208924 17.43896517747562 13.819992591534556 12.72024751465577 15.199197804875173 17.28527092923812 16.400182605541197 16.269275802489545 18.842512865361257 21.666929131751775 21.953841914814664 21.203105131577907 23.04646718963296 21.53625934025419 17.666481387558992 17.66136082437658 15.882941143186361 18.213022221557672 18.585624129475878 15.542925968849913 14.135812862919767 15.611508241208291 16.601439035769634 17.2974801098381 18.040573392026598 19.894776215333202 20.889031374856923 19.10230045603788 19.0249038029871 18.8660651977385 18.354694379140838 17.340914213421822 15.402662613480924 13.995588301106306 14.23611929841588 15.184297927829535 14.115334227346382 14.880149942910903 17.543790912238645 17.37588517426168 16.91602694842917 20.224271225716418 21.26389331848618 19.677710515990018 19.29873466339655 18.188934492119394 17.266229464920244 18.560421776809875 21.235135768969347 21.6474459275652 23.369141044519342 23.34301921034453 21.753946093524764 18.374173587478253 16.689438989530302 18.39459053384792 19.54461695653521 18.813875809208753 18.024529851833606 18.83717380139463 19.94775876381412 20.950104817454534 20.782663615785303 17.387590947699277 15.773479187299941 17.28714411001337 17.935107151370477 16.036531319138092 16.232436892750815 16.615275664645505 17.373993493109435 20.238794674210066 20.67089515281117 17.730672510221755 16.110529722190666 18.571482284786594 19.22197143803734 18.06596367162495 18.664332415440338 18.824174138351292 17.0469694401401 16.51535515834538 18.98035527763053 20.3705075119324 21.76666098273173 22.215334320198075 22.29803017605441 20.365763320414523 20.0380059599449 18.273644241143334 18.398578319680354 17.331408675949497 14.468655337118404 15.072011013811139 14.320154666390088 14.348414963951836 14.336843206101905 16.23530659140526 18.365253678168745 18.274372906381842 15.636617124991751 16.312630018179267 19.902085305233523 17.636275319211624 14.431697913872698 14.957183374303304 16.890077563694458 18.51029530187867 19.157277432035794 17.99962665698212 16.62859406046148 17.869457695867624 17.856194917940602 18.09930609530021 17.013697554007614 15.451718573053869 15.619163845591839 15.466085853555262 17.021115979869368 19.85089395166602 21.699380705305813 19.94319801150541 17.806560450188954 13.946812704110426 14.410123609021042 15.17291735804596 14.24317185247084 13.172500688532253 11.460310451394697 13.009842903885533 16.285189684898057 16.915486144337468 20.294160935830913 21.639220560869976 20.882004896342846 19.191651806710116 17.054068605831866 18.468414694660463 19.517248472595305 20.041207085243318 18.303267404131216 17.38714591324641 21.412711114409543 23.30724424066778 23.764910814337043 22.01850017299435 18.23132681932707 17.782336111997687 15.727821144770209 17.563524914286614 21.37473678629598 22.055480639290852 19.408438493554453 18.437274065175767 19.989596722950196 20.768096545460132 18.540057281785522 16.524051291315644 18.401770448432682 18.7551324714136 17.624882457471788 16.033813527614704 17.570934768192593 16.187555679333528 15.087075993196066 15.260385173461167 15.647795599153513 14.782566116237414 15.254864013054664 13.842744826510632 13.617659191526954 16.447127341669635 18.745759284003235 16.879344160299357 15.646088998409182 16.209432408586036 19.81882703040258 20.838481006734156 18.574725637326345 15.41890398136459 14.809628400852223 15.43109476721738 16.836310803252807 20.300363064648835 22.24482075292703 20.374251245354785 19.136481563235083 18.54700532397161 18.55191457200205 15.195456456189437 14.886875921336754 17.9977170797101 19.930853673062916 20.56113885523822 20.297063190282277 16.52614404501597 13.825761383887114 15.753127427581639 19.580498929557884 19.160344364516476 16.582042679654286 18.41956180702552 16.012568176202755 14.253249373322314 15.950862764493563 16.3590162583385 14.971243642495404 13.783219492341571 15.477391594315467 18.03141406662592 20.196093595806868 20.8703145684803 22.780957930286537 21.653949570557536 18.502677824819994 17.31417442406771 15.1568171311086 16.093932868578914 16.065206249101404 14.978638688964399 15.273551925811704 18.31241131344764 20.209034280769202 20.099355362450822 19.93178385025943 18.149422329543313 19.307189096327832 20.003514246090038 20.451050999264794 19.22170138927543 18.328724303446744 17.14144281098587 16.573666781685223 16.565149678316065 16.668760305603605 19.309224511918583 17.430842333541115 14.241279614309613 15.634391917107651 15.098440914632349 16.845980395300245 20.80103135805929 19.573544884898674 17.169248990252473 17.88185430898874 17.62212677110041 18.322169950888068 19.060153880227798 19.561289398135365 20.17831792340977 22.771154397620116 21.053669219451873 18.78207323554005 14.426051908036996 13.705776628801894 16.76672343666738 20.137967510831864 19.559047364972628 18.670610631589998 19.24494101276312 20.046958352370186 18.68405755008503 19.411611395971757 18.050818689161055 18.363530417678902 18.865651058515272 16.625962950207352 15.152451170764362 16.272692642603044 17.451495846445816 18.349520029969145 20.471577928257965 20.002886270988647 18.65676274473653 17.2395661837241 18.623349654676 20.87183202876391 21.151692143290703 19.84084029998025 16.731343423276364 15.176515288963271 16.81731699359943 17.294368483441605 17.233813588973643 19.033737101258982 19.763851443228326 21.033235841318863 20.170918603925692 20.18130581034949 21.240764653590507 21.66609299100674 19.12587034208562 16.08338707842484 17.178330995401247 15.931655004623202 15.893218913689457 16.643986551808535 18.349927964380388 19.512323684076392 17.95552391604604 16.149171530970413 16.881755858629642 20.083267320860333 18.35634480537548 15.102770495356488 14.738359020269924 14.149481460541313 15.118834531216487 18.473384911208974 19.22945039029385 19.06020044880405 19.091442497303905 17.370157492668174 17.18815862787106 19.444487891073717 19.373042937856248 18.377324774404904 16.27928301883865 17.61450440141376 18.93413051058916 21.22958196421725 19.971119984945428 17.331962503947082 14.002231155184418 13.04248648432044 13.05361492010876 14.145549369543762 12.363392940348248 12.63196868686727 12.588287426831268 14.542893444114736 16.60689972530357 21.354813219073034 22.144889856244507 21.313717372870098 20.293874574029168 17.3005335827926 17.69149899235287 18.331087004415224 17.878586010599488 15.961095189402966 15.226794800332964 19.049607240501523 21.785982596353172 23.669008819900355 23.25571346119247 19.986373417053837 17.518604907096893 16.252841566333743 17.99213809648916 20.464745733690357 20.590651384153322 18.74660982641806 19.802003723253925 21.36647080544356 22.637062171852687 21.603279620341656 18.446680799071242 17.107398870140052 16.08748362896858 15.509191824194678 15.193873376641971 16.9599983998298 15.519964079595882 15.201728897857727 17.003787051315623 16.903786454602308 17.45998478127027 16.123798895333746 12.386619733125633 12.132171207444225 15.754414280032693 17.381860480688438 16.459583335587816 16.336287692305834 16.66494094211232 19.799426197669867 20.300615118283186 17.496927901790702 16.229938421865718 16.034237669540197 17.30136310079935 17.29901810861488 19.931628812744133 19.608269339077616 16.952432180675512 15.895112387162778 16.828468675804316 18.5912003568133 17.449281642428407 15.328521478879743 17.854524110057994 19.00565774929052 21.94960246365852 21.695015302319682 19.106546224392726 16.016383409678028 15.517067181906606 17.687943757467128 17.97809756122758 16.37973250455658 18.699465039408235 17.41811316902172 16.387612647337782 18.415716433110425 18.566584439359445 17.94920316301663 15.62096435036281 15.620436195860451 17.5431690098867 17.93953683981904 19.860421078625308 20.72040498570538 19.3326252246666 17.422698136212983 15.425944571540835 13.809981192519205 15.091551446377274 16.948133877722167 18.4529646569918 19.97082347220533 20.922290926021795 21.69258752984189 21.720441575876098 21.456666122390665 17.785246709680997 18.92301771233415 19.42054829850504 20.798752484459357 20.888531111879267 19.714402772743504 16.98049211633935 18.773835571749046 19.451970498672235 20.008424331833606 21.449401190850125 18.483048180604445 14.663517489979732 16.67339215656091 16.327007872238102 18.494769176687228 21.225682251664914 18.799213614060022 17.236401052448382 18.05085432452278 19.544027383052267 20.462083280845157 18.76688731260698 17.927548614774416 18.171378058591706 21.625409745101187 19.382407002807287 16.74455267488867 13.779650194087365 14.545997480951904 17.421362824282237 20.868819381077895 19.876027872951887 17.520028569724968 18.920777347143705 19.49989401507166 17.329928189382922 17.639622246902057 19.800015420082318 19.790346019624902 18.411619342053303 16.661807358717063 15.032729417816677 15.873172771948672 15.74540857655947 17.47509189163411 18.87907216010535 19.597797171688292 18.482712930071987 17.044548593668964 17.82075443188745 19.43221653375315 20.671060607795894 20.49150213493863 18.18043605887179 16.063416768540066 18.084309463280412 17.29511855154333 16.396359488840634 15.969177234528358 16.11498090666346 17.66662333517836 19.146359438416916 20.157624368724722 21.030996916138267 21.091035902101478 19.287385241910243 17.25723730323857 18.07298833485339 19.004935805694608 18.14580896737464 18.71646518688548 19.18977904551748 19.946846117106855 19.192915800383837 17.857195246450193 18.14493679419397 19.579786481259266 20.42406373576853 18.53667805629568 16.91380596865273 14.08355586295719 14.54168141762093 17.971081515197127 16.952338059109284 16.54032308512184 17.308370405342338 16.70395474723562 18.523329166041766 21.446168227169295 22.074421347464533 20.11346281667187 18.228569025078883 18.722653107069263 20.52120920466861 21.389912392362877 19.80919233761934 17.35584395477441 14.571788899936086 12.740412505035069 13.308795393799803 15.505931460650329 13.891346129978146 16.36333129393838 14.920997900199719 14.629700639418575 16.690716643278805 20.588408117240114 20.847503030717554 19.957585621578513 20.33150843634829 17.84035037451766 15.98465109843648 17.442184288397264 18.29292638059699 16.535794545439018 14.891733247287323 15.473101450314426 17.05544112698949 20.387347347248433 21.227610676285092 18.718502551353655 15.653595614271076 15.320493879962074 15.607066796123068 16.371613915440083 18.04545559438624 19.355917686452514 20.043288984470532 20.03397835134566 20.31905921529682 21.44652366697733 19.95304117121811 16.17219782491826 14.835997618160157 15.565224495233126 16.427209247326722 15.563386496423702 13.599584339893955 15.416725117995622 18.281329108856166 18.01079266330532 17.88161013893834 15.369039304910832 12.062192836876518 12.684913224872414 15.458476107783884 17.092558419972985 17.882063629197408 18.487679691752692 17.35004798954034 18.632746581054462 20.15890340467973 18.354057153629242 16.09315073129894 17.75264826868974 20.13376987415564 19.297008096167364 19.516744316046598 16.553423304586747 14.957337330395452 12.87490123350057 13.805702661715397 18.009879000904096 18.384813954745443 18.06754970434023 20.08756861782806 19.037377185378446 20.85307930705723 21.033232480863756 19.8433748444925 17.282724542439954 15.948958124212941 18.50889524895969 20.432993783986706 19.676403315665507 20.318579069841437 19.99614570025678 18.240480981096095 18.067571975300147 17.709608895129133 19.30390663804878 18.386014522742595 15.685435264470915 16.174379560411477 16.92178376171311 20.188737645871367 21.466037847102125 19.829039966560895 17.999662766711566 15.828964059121803 15.544152325519846 17.453453883843604 19.897661946929567 20.701949314243702 20.490024224304783 18.663085066548028 17.667954783401836 19.131308889606245 20.48612997629517 17.307242143829814 16.86433324506888 15.854976379022114 17.149595738930152 19.20983396825576 19.09775656859494 16.967946125357678 17.453246806925808 16.183409954213086 18.437820316717247 20.97191824521284 18.991825694643232 16.1195005287901 18.29564108782515 17.169950003796618 18.18087337807209 20.480871467521055 18.80832417133043 19.901018986076824 20.665434035779157 20.55885723866443 19.41963655305375 16.112050054715578 15.814528679278185 17.119713032234873 20.27040524770139 18.445208270294454 15.523112740626608 14.051652903920962 16.206455380981748 19.176254078413315 20.14371118722146 17.968726881333193 16.825069859266495 18.726062110357827 18.797564150467046 15.921286795261711 16.46817527430027 19.14817986317419 17.07861328681988 15.281252693933629 15.659015731495293 14.656542648179624 15.721781545612867 13.602818461737014 14.920722726669728 18.89545900036983 21.41914189035198 19.359962272384077 17.90600072626454 19.126920472453655 19.222889212235682 18.46359331425741 18.71783927713324 18.313219440455995 16.547641324924818 17.185241004225833 15.843798999173572 15.707206390399088 15.787002361595672 17.144916597869305 17.67693203684524 19.73589536858041 20.12041475563215 18.094217226042016 19.072746991181972 18.54939033436313 18.208183884699228 19.375498447654405 22.26723244688878 22.509891577026533 20.645270392341743 18.719868795690672 18.032664486066675 18.470234033362747 18.880024497806097 20.168956282716056 20.55117339665117 21.40809274141272 20.39322365399474 19.495641897892572 16.3486579711693 16.299232563861953 18.102702167512433 16.182262667790567 15.996260861974628 16.375809330913278 17.895700403283943 19.556732541294192 20.96718154450265 20.04164359626274 17.132575875735753 16.49256418588725 17.638862982706847 18.797408312891235 18.601714604873344 17.850393606753812 18.646522953220977 18.50400493021251 15.586280491048338 15.19678