# vtk DataFile Version 2.0
Really cool data
ASCII
DATASET STRUCTURED_POINTS
DIMENSIONS 200 200 1
ORIGIN 0 0 0
SPACING 1 1 1
POINT_DATA 40000
SCALARS temperature double 1
LOOKUP_TABLE default
18.04366220967959 17.85982958474275 17.65308500898045 17.431790361496134 17.207432236920102 16.994730448884678 16.810699160870936 16.672407040953036 16.59365923938998 16.581389175550235 16.632908333521705 16.735108499181013 16.866230662143177 17.000066380782943 17.111675596472075 17.183130525225568 17.20763644849668 17.190753570652717 17.14828969578971 17.10148044269268 17.070930508808665 17.071128911985767 17.107067930440447 17.173734810848327 17.258307396117655 17.344090782274506 17.414824421222033 17.45807614919129 17.46696417558681 17.440186280020765 17.3809641168232 17.29575119752993 17.19332604760468 17.084370140369835 16.98113863457048 16.89665398706438 16.843073628879306 16.82936623447278 16.85891577485513 16.927914128226416 17.02527979014802 17.134392391871078 17.236336519018817 17.313839809412396 17.354865394281138 17.354949506151318 17.3177832082806 17.254040661373644 17.178866469305223 17.10864961446281 17.057748139364936 17.03577080800962 17.04592652189394 17.084797478439036 17.143619507070337 17.210767065256842 17.27476399379678 17.326960648275058 17.36315295628211 17.38382477415407 17.393179484703197 17.39746731203481 17.403188972284998 17.41560003666922 17.437703305865526 17.469751843363774 17.509250699526607 17.551479418479442 17.590545335396126 17.62085401225831 17.6386920780197 17.643483853059845 17.638317221177655 17.62954802232982 17.62558689767741 17.635206265733245 17.665786823594793 17.721861542793405 17.804191725902943 17.909501287047608 18.030915715692604 18.159058411762494 18.283612767221094 18.394993071696714 18.485677043973293 18.55083473309506 18.588157513802866 18.59714136896254 18.578327315403026 18.532993221136838 18.4635031968105 18.374097100475574 18.271580505453183 18.16534407124276 18.06642415126761 17.98575711977211 17.932141522380977 17.91053202828868 17.921129311846986 17.959420714478316 18.017030879519197 18.083070760662558 18.145653471098093 18.193339018329823 18.21640788278568 18.207963488151815 18.16485839396745 18.08832707656473 17.984087633009096 17.861694359510842 17.733154457954367 17.61115950156789 17.507487358550332 17.432014870571802 17.39238084268738 17.393914514833792 17.439301685165553 17.52772275475908 17.653714712340165 17.80645793184772 17.970271266842605 18.12671580756294 18.25801079775642 18.3507858803375 18.398883907114712 18.404179796592846 18.375108475363255 18.323463753863976 18.26063281751025 18.194517260635553 18.127993585760002 18.059139449439225 17.982890602875706 17.893468060362462 17.78683833406317 17.662571122340147 17.524671616628158 17.381250568140896 17.243213912191113 17.122427987555206 17.02994134953178 16.974742636340235 16.963223310855792 16.999133106565406 17.083573646811438 17.214632387904388 17.38660873151265 17.589228021256826 17.807491952881367 18.022687533766003 18.214614597286364 18.364550681125813 18.45815438538918 18.487564524249724 18.452296879781347 18.35893933459499 18.219898727789097 18.051517293964412 17.87185000814841 17.698385216838673 17.546014161672872 17.425539243396507 17.342897213419125 17.299094532911823 17.2907111489947 17.310801717086324 17.350082966281093 17.398336773735235 17.44589878611735 17.484970228589955 17.510412272034813 17.51977858381588 17.512616494833832 17.489384400363083 17.450504287866927 17.39598679917433 17.3257807855614 17.2406727144318 17.143352363108665 17.03922942717834 16.936687233620255 16.84661703368054 16.781242311404863 16.752404962089877 16.769627698813856 16.83834730642788 16.95869018707885 17.125039388321248 17.32647671702686 17.54803551750673 17.772584783728163 17.983056690098284 18.164616135287286 18.306306120074705 18.4017804517338 18.448996984461324 18.449105049012722 18.405036335796062 18.32034537508774 18.198641656861636 17.84171886990607 17.67988987789714 17.50453104233977 17.320706440075753 17.136056166047663 16.9615210813573 16.81100865977633 16.699607650173302 16.64047031694965 16.64111743960346 16.700362583204186 16.807058198000767 16.941404633663694 17.078792191172404 17.195316316822627 17.273478222161675 17.306381704983668 17.29908761320921 17.266634606191353 17.229306984178994 17.206626576971427 17.21191993510686 17.24903789138808 17.312017647877486 17.387490353534474 17.45880040074059 17.51038733119512 17.531103590313617 17.515725518448125 17.464703982196145 17.382845385707117 17.277831488206925 17.15921747096768 17.03799319435217 16.92629432104459 16.836684992283338 16.78066462789526 16.76652211825522 16.79711350714774 16.868356508320353 16.969124961537428 17.0828349241987 17.190489204568408 17.274478392494515 17.32218844824695 17.32851755669533 17.296722950007005 17.237470072777505 17.166380498387337 17.100660910098057 17.055523973742808 17.04112383020374 17.060651400387343 17.110040872108378 17.179390371741857 17.25573613107085 17.326395732482915 17.381913369661923 17.417811098263517 17.43480973142733 17.437717945496374 17.43356146244783 17.429606690142283 17.431758931725142 17.44353818637924 17.46562424450402 17.49589963502584 17.529963391083356 17.562123918759895 17.586809791003354 17.600166381656333 17.601438359240113 17.59370257504326 17.583669284667316 17.5805503024587 17.594263465994093 17.633388171027494 17.70328696503176 17.804731310269013 17.933292168730116 18.079685809635293 18.231138875986684 18.37359813441926 18.49430021454461 18.58398788927986 18.63808945852901 18.656533796151898 18.642430658339176 18.60032859797115 18.53489978106718 18.450597977743815 18.352251130076365 18.24600962219421 18.13987451189186 18.0432682760961 17.965624742080923 17.914468724591618 17.893682561073014 17.902548493584966 17.93582432090758 17.98474328608913 18.03857903061217 18.08634452231441 18.118282586402326 18.126985232633036 18.10814859128557 18.061033863737016 17.988633813963162 17.897422851794417 17.796549541781314 17.69650458557939 17.607583646406695 17.538640297341626 17.496502112211573 17.486026670444897 17.510355723892108 17.57079079866941 17.66599517360686 17.790780982847398 17.93523066167664 18.085007956859386 18.223316919318158 18.334223965494154 18.40632842546166 18.435437145620575 18.425174851208652 18.38524328087309 18.32796033520281 18.264332336805428 18.200983041155798 18.138826475328674 18.073695137040307 17.99852028507109 17.90628417573118 17.79285567200008 17.65893552631038 17.51062242340228 17.358510996920007 17.215662679458294 17.095121960920427 17.007753482798204 16.9609842814386 16.958608478661983 17.0013329050819 17.087449355840608 17.213077477510524 17.37181151550073 17.554103806130687 17.74702383404648 17.934945666926463 18.101281690896784 18.23085860243486 18.312229129179375 18.33927830070444 18.31182289695867 18.23527488369523 18.119641287107672 17.978130728227786 17.825545833039666 17.6765922044281 17.54426176679455 17.43848546800152 17.36522519562852 17.326088743565826 17.318469624975446 17.33618345006157 17.370566948475407 17.411950118344844 17.451274410040057 17.4814798792639 17.498256346704764 17.49993634468261 17.48665080151845 17.45919251455151 17.418144692893318 17.363663437010647 17.29595911046549 17.216202651672223 17.127442815043906 17.035176399399397 16.947371937277136 16.87390277152427 16.825456643225777 16.812072762133297 16.841532087729135 16.917876880236495 17.04033290406101 17.202850107753967 17.394394217175606 17.600033824449287 17.802757556764607 17.985791141403602 18.134981920343915 18.24067977132265 18.298600198089254 18.309455652092307 18.277574115085645 18.2090680747271 18.11019193244377 17.98632623758054 17.63442800098167 17.50389814901287 17.368966712496018 17.230914684876712 17.093075669002037 16.962197480443916 16.848747446788813 16.765624552613225 16.725283078476178 16.735977157082292 16.798358419452793 16.903729793927603 17.03482540020081 17.16920477126666 17.284480891611217 17.363922131016462 17.40071495851114 17.3994845903174 17.37450125887343 17.34508811092329 17.329687765585756 17.34046961646413 17.38011193380882 17.441589785924453 17.510764429545784 17.570685191267224 17.60608331666735 17.606683586949146 17.568589774131127 17.493828510645464 17.38879484073521 17.262551587663125 17.125650020370394 16.989577591886114 16.8664432432786 16.768346037235382 16.706084740065965 16.687294061751007 16.7144972073209 16.783758859807993 16.884541892288727 17.001058515397897 17.11497308659705 17.20889825463019 17.269861258401356 17.291891614024408 17.277103056170585 17.235029619041384 17.180394541266757 17.129824998044107 17.09822568879186 17.095594244621143 17.12500333046873 17.18225754224475 17.257336887483845 17.337230621050825 17.40932459004133 17.464338856952377 17.498018752953488 17.51127396231057 17.509007339322245 17.498239242951563 17.486193053987385 17.478805888068607 17.479825271819085 17.490424157184744 17.50920865648438 17.53257532255074 17.555473470971833 17.572614874305486 17.58001063490671 17.57648980951125 17.56472088390074 17.55132716157989 17.545946458961847 17.55940517073281 17.601409727597638 17.67824182833894 17.790920086062098 17.934234244932657 18.096980906619912 18.26356208630434 18.416781559994845 18.541235951175626 18.626344295951732 18.6680375308232 18.668556582921543 18.6345505177889 18.57437149524075 18.495751903686163 18.404751457925926 18.30613775968457 18.204614433129276 18.10593785867119 18.01713118299147 17.945563782681987 17.897274794000133 17.875267557779576 17.878467976516372 17.90171623165186 17.936749165574074 17.973812684657222 18.003415598305917 18.01780387774967 18.011933071697563 17.98393447018064 17.935190180744254 17.870102991716855 17.795537630389585 17.719870489483647 17.65171546202261 17.59863012741307 17.566243761593537 17.558107495379616 17.576169613884097 17.62137000658949 17.693729013665276 17.7916121648995 17.910439705344206 18.041633935868365 18.17271965575286 18.289082411249463 18.377108933256245 18.427670640820676 18.438577862883033 18.414940963985917 18.367200991075233 18.30753477944946 18.245946603099277 18.18738577099809 18.130747291028484 18.069907608297928 17.99631910511897 17.902303129939536 17.784070484333547 17.643626936830266 17.489048998467563 17.33308447224303 17.19053360662498 17.0752403004926 16.997616694250365 16.96337567837578 16.973634991350888 17.025997635629043 17.11586780496056 17.23730472680639 17.38312532315355 17.544507432178282 17.710699577171717 17.869402112896083 18.00798757592354 18.11523776319386 18.182997205703444 18.20722005619173 18.188218765931108 18.13026179335847 18.04081393644072 17.929643579060013 17.80786669551189 17.686907165796732 17.577376745764067 17.48795882100407 17.42443775233001 17.389024557910314 17.380116295618066 17.3926072086722 17.418811537580627 17.449914173930157 17.477651800012467 17.495753834366525 17.5006819653878 17.491458207166133 17.468765634868777 17.433828398724394 17.387636772124495 17.33084719477578 17.26430931162419 17.18987806047799 17.111099676034893 17.033491825816313 16.964334698975673 16.91202952398104 16.885134776482882 16.8912034788437 16.935563201209945 17.02020601072745 17.142966657228467 17.297156918661546 17.47180379086848 17.65260369780308 17.82361199628552 17.969496547032293 18.077928786963966 18.14149652529149 18.158557045825606 18.132762144637873 18.071455203650306 17.983522655963494 17.877384047948752 17.759619116404256 17.44791506740288 17.354377358841067 17.26425756486709 17.174923252246664 17.085349385657256 16.998075664204038 16.92012726506251 16.862223123403176 16.83616141890816 16.85103759207514 16.909547869172833 17.005764651094 17.125369795629258 17.248550784926074 17.354872053932976 17.42871386940301 17.463566704199163 17.46372650431209 17.442730273942566 17.41895924572554 17.409818140836133 17.42638409310542 17.47021424526682 17.533198876135053 17.60027389053886 17.65387545320387 17.678563862338837 17.664397805096435 17.608295915083822 17.513473718331284 17.387713896813942 17.241443237561512 17.0863177476786 16.93447512276264 16.79813110558367 16.68901924953807 16.617339891399318 16.590244593623908 16.610226041715336 16.673959511912084 16.772104028173295 16.89035119373691 17.011677229346983 17.119398495609662 17.20035696711514 17.247467053991237 17.26098511449504 17.248179337326572 17.2214715642159 17.19547615976003 17.183603692603924 17.195007372863284 17.232611660079467 17.29274139641752 17.366458072768904 17.442195929518842 17.50886807720517 17.5584845536579 17.587566397661924 17.597138475097744 17.591598368714 17.577062797359538 17.559792472583887 17.545057187750796 17.536493979513242 17.535806051844023 17.54263961652574 17.55462511412142 17.567740275157693 17.577187481486447 17.57880569709873 17.570733397905798 17.554787731149023 17.53699755025862 17.526961538114076 17.53607825363876 17.575030381597415 17.651085775205473 17.76581103377862 17.913749644836983 18.082520204124656 18.254577426601337 18.410476575633187 18.53293959753025 18.61056412489237 18.639944464134995 18.625452305608974 18.576821178483637 18.50558023230733 18.42181759111064 18.33247816799118 18.241564483281625 18.151671038586922 18.065735117507845 17.987966853130704 17.923501882695714 17.87703006852866 17.851123865666878 17.84504756299383 17.854538171973495 17.87261263587559 17.891080401535753 17.90225254445162 17.900369702241335 17.88246775317392 17.848646047067962 17.80186627505115 17.747422526993297 17.692137968132993 17.643300917387606 17.607453272662475 17.589334219678555 17.59137468906873 17.613969931169684 17.656356340787944 17.717523253542137 17.79649382250279 17.891640937447796 17.999318564039264 18.11263630646438 18.22133676928919 18.313313605026117 18.377503355965718 18.407104083053582 18.40175088233837 18.36762186391765 18.31530741184358 18.25621714728966 18.198862553963835 18.146316143724917 18.095617243984787 18.03917993945553 17.96765521585681 17.873351176529372 17.753230924405067 17.61065072788494 17.45534134622966 17.301625102089897 17.165389326573766 17.060731423502666 16.997286379358915 16.97897471190686 17.004352319515142 17.068129918053145 17.163036313920475 17.28121608313381 17.414761667558466 17.55554646298277 17.694919871895575 17.823827675801187 17.93356451915164 18.016909842519052 18.06914694047765 18.08855381668978 18.076277256244975 18.03581063785705 17.972396211580733 17.892548367748418 17.803685048558354 17.71372068909807 17.630481141230238 17.560905618905096 17.510123833177655 17.480592766962477 17.47153718867025 17.4789430838241 17.49625999295198 17.51575231055776 17.530160113253093 17.534134504262852 17.52495032170278 17.502301501839863 17.4674102253401 17.421988444442263 17.36759620068027 17.305651400692494 17.237953859418454 17.167333568882285 17.09803927615916 17.03568274745795 16.986776412553326 16.958016546807425 16.95545892990613 16.983681769566456 17.04499965904218 17.138795967785253 17.26105921915766 17.404230175689364 17.557491085350684 17.707635505092252 17.84058910674575 17.9434623910938 18.006743914410723 18.02603151120622 18.002717458869927 17.943349578600223 17.85785740033281 17.757216280172422 17.651230341735637 17.546944228365426 17.30461699364358 17.24937351279428 17.203082744730768 17.159503314420082 17.11368108358236 17.064387959898156 17.0155642432617 16.975970733487326 16.956836393088004 16.968099264705316 17.014495206864673 17.092933848835017 17.192232772282512 17.295512142154568 17.3846562343633 17.445509719228557 17.47213296141117 17.468640718461078 17.44788641212224 17.427316322784623 17.423321679745587 17.445959896591084 17.495769548028317 17.563625789678735 17.63349395300836 17.68697251155537 17.708032287547738 17.686501765000596 17.619503720082363 17.51090037230983 17.369478435121994 17.206840010686495 17.03573197975989 16.869048657887166 16.719283048552988 16.598004747111656 16.51504438807277 16.477340649908207 16.487683678414985 16.543751082876685 16.637844273049314 16.7576073995181 16.88777760102542 17.012720677755375 17.119232881410245 17.198942338011122 17.249697897673173 17.275581566891173 17.285533048895743 17.2909161225151 17.30260782384818 17.328318864183448 17.37083134818121 17.42763163754249 17.492021601333782 17.555311358788305 17.609329109847614 17.64841724745979 17.670363210545002 17.67619388717086 17.669197017001675 17.653723561540964 17.634225262562637 17.614697859450462 17.598412612104404 17.58768394090833 17.583502841898934 17.585106333103685 17.589795340618185 17.593378195784688 17.59141316698813 17.58102531781868 17.56269621930584 17.541296608116035 17.525838519268685 17.52785591080299 17.558764688234614 17.626835086183736 17.734500445501148 17.87669057418365 18.040755560249327 18.208289087238583 18.358698098575967 18.47374583144871 18.541758401607087 18.560068485082557 18.534778545697485 18.477936795521078 18.403279629882164 18.32225843451002 18.241826123478425 18.164538820117784 18.09042982011866 18.019403891894463 17.952886722444113 17.89404953799564 17.846724631944845 17.813716543629635 17.795372113960934 17.78903105489305 17.789532622556077 17.79052680440195 17.786086784930337 17.77210162191494 17.7471058234889 17.712460595967492 17.67199928292595 17.6313044299675 17.596732681573524 17.574271441787467 17.568391363533703 17.581205317502317 17.612289801054352 17.659326901223988 17.719321252915524 17.78976979981583 17.86909123856392 17.95597582470737 18.047946386249095 18.139979141598836 18.224167904942167 18.29098783527621 18.331900812568204 18.342265028925773 18.32320898890841 18.281505938975528 18.227361721021282 18.170947927298553 18.11901136121431 18.0727774936347 18.02778882696162 17.975613750713332 17.906814245211315 17.81428308099688 17.69602746594508 17.55663396879191 17.406975301056743 17.262184329852857 17.138431245225952 17.049431982146235 17.00371982663894 17.003446299202935 17.044914551991518 17.120410319135416 17.220465890576754 17.33567600029842 17.457579268028695 17.578695091172413 17.69222936033121 17.79200239568736 17.872832733608682 17.931185424572494 17.965662368922914 17.977008473761362 17.967623091415273 17.940856785294176 17.900447957636572 17.85029797104557 17.79453500518105 17.737640016872305 17.68438188635574 17.639410018866567 17.606514237742076 17.58772830196331 17.582583619785332 17.58786057139107 17.598076818557566 17.606685931265865 17.6076314315636 17.59669073583871 17.572104826975604 17.534328098891937 17.485171013211136 17.42688573364786 17.36169342847438 17.291916310101602 17.220486036158597 17.151400056604828 17.089782085936974 17.041465237497658 17.01225704143367 17.007130981573837 17.029527043125388 17.08083258705077 17.160040796464887 17.26356690278576 17.385220733456777 17.51637149546103 17.646391647737552 17.76350349212705 17.856112334617976 17.914544650346436 17.9328561792758 17.910174613153046 17.85105723122857 17.764628705746436 17.662694661284785 17.557371588685807 17.458860118569024 17.373826662094732 17.21940907351585 17.199566962975318 17.1911945362709 17.185149171267465 17.173422825070602 17.15188132753398 17.122067322272684 17.091193302018596 17.07003111762179 17.06923980430356 17.095364081164085 17.147952669662264 17.21890366790332 17.294399769422927 17.35892371922099 17.400118306447133 17.412895454145605 17.401345779314966 17.377663716887916 17.35830783239108 17.358611145028522 17.3876433284342 17.445046813058763 17.52084250500805 17.598127881357467 17.65760953045653 17.682400705039043 17.66162847508628 17.592021694014935 17.477478191915313 17.32727625974809 17.153855200352222 16.97091407495086 16.79214533994105 16.63049620786783 16.497633023160603 16.403313719977675 16.354558496533688 16.35471976607703 16.40270283009014 16.492647844723674 16.614342905354555 16.754490450742395 16.898710019682355 17.033898130527504 17.15039154555308 17.243384694651326 17.313243729447098 17.364658919630788 17.404875603947108 17.441468081968292 17.480239556304316 17.5238179109374 17.571334998997408 17.61922859293627 17.662796307424674 17.6978527233238 17.72185847698667 17.734207235712102 17.73579419666642 17.728300376582528 17.713655487673662 17.693910932897012 17.671424820845303 17.64902460932059 17.629795012180306 17.616352435691528 17.60981378547457 17.60896877851988 17.610233758474045 17.608708232318712 17.600155995763167 17.58323570524426 17.561083930155252 17.54153435526058 17.535740755706826 17.55551260997366 17.610051546748014 17.702923879798874 17.830074768647442 17.979540607824124 18.13322095448943 18.27056645958625 18.373369723029374 18.430255624470004 18.439314664715404 18.40784261940449 18.349233431129278 18.27824705736379 18.20654099311186 18.14014670579559 18.0795944843435 18.02216468357657 17.964896841732642 17.906889423963516 17.850007742926124 17.797989451875967 17.754638568895356 17.72205746185462 17.699676507592788 17.68438881560157 17.671620216631666 17.656846976259992 17.637000439275873 17.6113472114033 17.581694493134883 17.55199700181848 17.527540071467996 17.513862374896977 17.515567802902247 17.535241906146595 17.572793560325785 17.62554115121261 17.68913776679748 17.75903034738921 17.83179715886409 17.90566455000184 17.979871774297568 18.05318270108532 18.12239544186499 18.181832549919484 18.22436840010472 18.243743962775653 18.237157266068284 18.2068430555885 18.159756769500166 18.10535635408004 18.05235404501929 18.005733694048196 17.9651379893154 17.925114666357675 17.87702983779735 17.811986463856798 17.723901189114194 17.61192570265833 17.481571657192188 17.3441887760564 17.214849093690443 17.10914510277336 17.039776022431063 17.013910279157347 17.032078771893513 17.088821262168164 17.174678638627366 17.278675719819027 17.390389182504634 17.50106186756709 17.603793516146805 17.693276668904872 17.765615275066423 17.818473895053472 17.851402670090966 17.865962389397794 17.865369542929617 17.85369100510756 17.83490501628023 17.81222101341839 17.787893801373276 17.76350198851252 17.740444283343024 17.720331060871604 17.705015831474313 17.69617783471968 17.69457870540526 17.699307861266412 17.70741625273546 17.714237027018168 17.71440242689466 17.70321179488886 17.677790576098783 17.63756131959409 17.583907568736695 17.51934376097975 17.446738763026232 17.36902941478559 17.2894860956851 17.212211513960078 17.142412314935658 17.08614375250207 17.049545535315033 17.037839863005058 17.0544194568579 17.100241856504127 17.173587014378924 17.27012713173997 17.383222325904153 17.504367047079562 17.623749323830552 17.73094129125012 17.815790247689392 17.869567311189705 17.886308760670673 17.864084400557054 17.80577156158864 17.71894289388874 17.6147302563809 17.50588907940906 17.404555079002854 17.320220556062512 17.258293851002716 17.197027685517696 17.206588113890515 17.226789976585533 17.24656152839588 17.25601357499509 17.24925702963519 17.226357529494486 17.19352635943475 17.16121141856734 17.140581604417882 17.13958839108927 17.160011041809625 17.19656787016931 17.238468336114597 17.272961473464132 17.289759372358763 17.28486885545214 17.26246906294105 17.234047983831328 17.214922954614252 17.219216988928803 17.254968090572394 17.3210373413343 17.406834301379202 17.494859829215514 17.565101856309493 17.599789942494073 17.587085983039234 17.522859454909348 17.41047066768685 17.259127327320286 17.08166175312567 16.892467620810038 16.705983524240548 16.535736578282698 16.393730582099103 16.289925583300537 16.231652600535714 16.22295325311193 16.263970275888457 16.350610441158597 16.474725502810408 16.62497448416353 16.788338416420167 16.95201976193888 17.105286474134257 17.2408075066947 17.355178948682955 17.448579477468225 17.52372299236255 17.58444005471402 17.634304126141554 17.675705328914535 17.709627418227058 17.736103762128128 17.755017311346407 17.766747327579097 17.77228289067452 17.77277692390102 17.768889400004 17.760421609290443 17.74657601909798 17.72679441986815 17.701757300058865 17.673971159242402 17.647506092719283 17.626816866780636 17.615034707929492 17.612456987628374 17.616007921901023 17.620117982751058 17.618873183193116 17.60868549274888 17.590436291626478 17.57020236751541 17.55819829693925 17.56619315778684 17.60412357027864 17.6768229492678 17.78176336209963 17.908533967785445 18.040454552689837 18.158193190767847 18.244565461758157 18.289076624693244 18.290590960773493 18.257027801735614 18.202099310719152 18.140344380056646 18.082446889210374 18.0326468958379 17.98903886170986 17.946234240299667 17.89891606864228 17.844650537438437 17.784911469833165 17.72421681175985 17.668079184249834 17.620817822484618 17.584129772255707 17.556852388247478 17.535820146591547 17.517336924196723 17.49865873786926 17.479003427577293 17.45986589985247 17.444671255703067 17.437938854136316 17.444160315561184 17.46660018487542 17.50627990019113 17.561469863373596 17.62796928625428 17.700209633326658 17.772833872847748 17.84208940347293 17.906358153853827 17.96551834373383 18.01944251826996 18.066464016911482 18.10276427262646 18.1232160147674 18.123436539134627 18.10207772060391 18.062137722739898 18.010498226859358 17.955754997210814 17.9052353705907 17.862441692388575 17.82589775732327 17.789732738157785 17.74569096775531 17.685872123653724 17.605423332721273 17.504511157647617 17.389088870059304 17.270216943976752 17.16201164168409 17.0786668130893 17.031314189467196 17.025609150895804 17.060746118297516 17.130138208999984 17.223407788517285 17.32888924437332 17.43576503680687 17.535282478660253 17.621041209118246 17.68877886235776 17.736170011809207 17.762887577982404 17.770787638946878 17.763856930302122 17.747647139758154 17.728223102835827 17.710949780060222 17.699548350856606 17.695726489592797 17.699430225457235 17.709516164280444 17.72450296501821 17.743064286586566 17.764061249573025 17.78613973554251 17.807157142176074 17.82383848681399 17.83199065685226 17.827321491867366 17.806554799339935 17.768323265827885 17.71341516213528 17.64431401974427 17.56437886671276 17.477195959933596 17.386466479794592 17.29639365045416 17.212172424238233 17.140101410829736 17.087062238645778 17.05946959751059 17.062050540137843 17.096841763879922 17.162645903224515 17.254998868093114 17.36657347632849 17.487896794587297 17.60825624488688 17.716688607822405 17.802984875884682 17.858690430932455 17.87809173638969 17.859117437814362 17.80396295909834 17.719166360300086 17.6149225424161 17.503640625721776 17.39801917812568 17.309073412412957 17.244508143509925 17.207653216995098 17.2313630084887 17.26282947742592 17.300956233557546 17.333775527212143 17.350762998779405 17.345508956955797 17.317601151436364 17.2728515485107 17.221533197704566 17.17508444859053 17.14239001944867 17.126947861235703 17.125914941843394 17.13136672743241 17.13336865125339 17.12386737070314 17.100110085738066 17.066377375960418 17.033292085699784 17.01475337596571 17.02340093768792 17.06610561534143 17.14103412869804 17.23729074638936 17.337214327073756 17.42049622295277 17.46875299057211 17.469210743008432 17.416651709120867 17.313470337165494 17.168281729435368 16.993817608056137 16.804802821345426 16.61624340620411 16.442247870445623 16.295280334893445 16.185654072924464 16.12109327675286 16.106275385369223 16.14238182172315 16.226798952615315 16.353174238200356 16.511992142875634 16.691680601944544 16.880056680176814 17.06578043875525 17.23948794266935 17.39440613919993 17.526429019474154 17.63377334359167 17.716408665153114 17.775485771615962 17.812966805029717 17.831553787858983 17.834815039889403 17.827213685660517 17.81370922548828 17.798825518884712 17.785464652510356 17.77404598662173 17.762529856482765 17.747510326709683 17.726027496190543 17.697351226983592 17.66393162950869 17.63101864441742 17.604986162632876 17.590945087796694 17.590584565892932 17.601182801554472 17.61633061870313 17.628233023104908 17.63077729793939 17.622199196660066 17.606315287292993 17.591838440662343 17.58997740963415 17.611051949315456 17.661095567888445 17.73940083904938 17.83777074881455 17.941892918279905 18.034717015415236 18.101029662101258 18.13180959319422 18.126761639199994 18.093928976626557 18.046391753737353 17.997310787974698 17.955331536098974 17.92219535654474 17.893370075769514 17.861142408829128 17.818605747698193 17.762784401180976 17.695749040132288 17.62359022774625 17.554003347858266 17.49364377570854 17.446275945747384 17.412243960982995 17.389207632350107 17.373650802666035 17.362503723226805 17.354326594723368 17.349770272112615 17.35131039459238 17.362430467960298 17.386494805365942 17.42557146137183 17.47949806243026 17.54550465258971 17.61862333801637 17.692863664747986 17.762781442930997 17.824804216915947 17.877693881367726 17.9218890794523 17.958037673942385 17.985510199390824 18.001783522442057 18.003181566287534 17.98672234415087 17.952144663486212 17.902984637614903 17.845999776650327 17.7890736814818 17.738499030758575 17.69680820496058 17.662001619261215 17.628367281444106 17.588480002763173 17.535670132057117 17.46626702569491 17.381100395605227 17.285942876882572 17.190765621293682 17.107896232579108 17.049436250923122 17.024554051295258 17.03739441995934 17.086225788215216 17.164064833971135 17.260501523856203 17.364026859409442 17.4640601223088 17.552146811077453 17.62229456508914 17.670833045088052 17.696280637447412 17.699455370542974 17.683689710504446 17.65477786117683 17.620348063372745 17.588645071998165 17.567026709215728 17.56063754445788 17.5716596414866 17.599315540001797 17.640527442762767 17.690923374658283 17.745794406977144 17.800678154938677 17.851456461669642 17.89412678328308 17.924597913484597 17.938843632927433 17.93350451323637 17.906695718297296 17.858581097522556 17.79136672467111 17.708710143616614 17.614908168251233 17.51435689744844 17.411571313128082 17.311645695340236 17.220709313645955 17.14590186460637 17.09466267444551 17.07350018977899 17.086649180302445 17.135027216592512 17.215735598419386 17.32215696171203 17.44457912669038 17.571225210025286 17.689549029199053 17.787637661756776 17.855560667126035 17.88652884865784 17.877755401750434 17.83091777079628 17.75210220007221 17.651126589421853 17.540237219089434 17.432353750381083 17.339202089794686 17.26971055916769 17.228915589771503 17.21742333392366 17.306870619223307 17.352870224605223 17.399124565992203 17.433659