# vtk DataFile Version 2.0
Really cool data
ASCII
DATASET STRUCTURED_POINTS
DIMENSIONS 200 200 1
ORIGIN 0 0 0
SPACING 1 1 1
POINT_DATA 40000
SCALARS temperature double 1
LOOKUP_TABLE default
19.48247932140472 17.390076753244777 14.248027176374471 14.719484536767235 16.239409443057223 15.118843206321177 16.08420028638765 13.737558057158175 13.356331522040811 17.712017917693125 16.651761714351743 17.987063202694994 15.11439783727976 17.374299105473902 21.56277585286827 20.148000265451895 17.16884734258465 13.511194708736122 13.667810901141346 16.057032231652947 18.38458911655361 16.878667729573106 13.89302747927993 14.162601005994926 13.511301669523396 15.3357228860566 17.579287224180828 16.75914838776868 13.590199651463209 12.995648321307394 16.153173635353074 19.995421424794277 20.49160494779783 17.201894778080575 12.929807174889124 12.704480009177802 12.880198444093542 13.211490675251065 14.110634109679198 12.760973438128037 16.167548471554113 17.310392722867682 18.923665322745574 19.019654955852207 21.015578186845854 22.151789106917526 20.5040308829485 18.083147667090802 16.105330330333796 16.153704070804086 14.640745990186714 14.32103291236222 12.444347006739326 12.546322110997119 15.616410013750926 16.603713800057136 14.822406388345836 14.489134930785736 15.395753923282083 14.507422160009003 16.162127613029195 16.569612184681578 17.99597119259438 15.810645950517241 15.285244420709784 16.413976580481442 14.745283214123313 19.604925635606172 17.596841589958103 17.86799150017991 14.532229322479038 15.198087964132169 14.304279388027396 15.416402484643777 20.12991714478795 19.735398949496105 19.112476728281678 17.239276723559904 16.465836379173506 16.499224239537494 15.253812366968942 20.250751334699125 20.90217331312364 19.65901583277545 19.589192719430645 21.870565274958665 21.84017295634881 21.436976228377716 20.410378299293654 23.0800443124133 21.083950165646517 20.973139854689087 20.48578780947521 19.05576770284344 18.07887709500551 14.222663933816879 13.433878691936666 16.820390501393575 15.250256111463266 17.876697956752732 18.75643753450571 16.87067191845646 20.45538810995337 21.16019498276087 19.540992636339205 18.28565550167484 16.856335521196655 19.903633266411095 21.969116402172123 19.13984378230873 16.33932314360271 12.909624089132517 13.34808908999318 16.051010988654642 14.136595453074731 14.678215909400661 16.48580026455713 16.553761130058476 16.898272527882465 16.928371222348513 19.651853767053996 20.345127003059492 19.08155383459171 19.96702813722948 19.708486042215103 16.157235046074337 17.297362265949072 16.337717350109244 16.43230424638418 17.982042853442174 13.841023693501166 14.77260177853185 17.287532872618446 20.396676599262374 20.79083666509689 19.66244623962389 17.29316401898892 18.491633435136624 14.786303895120232 13.910994659003919 17.28025469836817 16.122104146664604 17.289557411731554 17.086569220393123 16.661053323827943 15.233872395090572 16.78055223284583 14.005980083394304 14.994082551430887 18.270940562939185 21.187230862457202 22.993478519211866 21.633974083271845 20.609513522388752 19.227398729722843 17.757805036005088 18.685228597659894 16.866601969086883 15.096434142268237 14.384665709719584 13.822318014638618 17.78330192608577 18.38285993869181 18.413081889417867 16.793602043805137 18.173647817208803 18.58203040809248 19.038946677086873 20.87754452466909 17.78917632301765 16.017984169221716 14.30537542207312 13.385605516727818 16.195934043824504 17.138518725208385 18.687097934639198 20.753608273291846 16.73631715442068 14.893353392720927 17.226769772685525 19.881277079104635 18.254824090831786 16.70170738678091 16.978821854275132 13.784366001394165 12.88710388617476 12.517099992681155 13.288258524262492 13.398778084042995 13.806925275782067 16.715827336132232 19.56465301586182 17.642355003528586 20.01911322431099 21.821926310734057 18.94463091096603 21.92933157871175 20.999444785079174 18.915307344271177 19.729814953483018 20.753323635386703 16.47491760005704 16.882492967797916 14.184959557151654 14.710665355934019 15.32748613141947 12.117680869778178 11.157800217053305 13.352282853370419 17.363183951124704 15.645913195180079 13.827584645224135 12.544279235236884 15.741027842526478 21.928042803068887 20.588633357318763 17.096542367823083 14.795026870733562 16.585944162889856 20.891494486854587 20.429016382078448 16.228625077503594 15.90136962186632 17.84367942035767 15.784685185965559 18.38496703294464 21.898449406526407 20.970398106697992 14.77571405601879 12.672459779856885 15.488805415016435 18.914568265651333 20.12308336409197 17.167290705521545 12.517343427473138 12.725099723027991 13.36088300252008 15.570418395615215 14.90192634563313 14.534065385334195 17.32387549080644 18.860767656252474 21.350669448195937 20.558339317281096 18.730815185581577 19.523219532311643 18.563280290332216 16.717335088573563 15.853467667865084 13.952072195093738 12.930332444551347 12.253364559104027 12.091473223571787 13.940424012819163 16.495815868598193 15.358677585082072 15.954957142150452 17.82176718458215 19.54515490698345 15.814515972431915 14.452707602189896 16.877597337454066 17.431475483811802 15.706205946995768 14.011163922242346 14.990112385753418 16.258959484309834 17.885216433121055 14.914134633034461 14.638454156740519 14.614407019827421 18.086884452125535 15.03752806413498 14.936324213138327 20.614867089408882 20.331153619329772 18.31630044161161 17.379542235770426 19.057882652853937 15.765871146279931 13.642756239742406 18.900909885502287 21.14011669265234 21.653869281419958 22.07305987320835 22.367933734390277 21.016137865568176 19.94668977431997 19.33536494699116 21.28223073756616 19.98392898213712 21.51936405639549 20.858511327671742 18.36514689755185 17.965158201187272 13.97223081757768 14.64971464890481 16.080705719724076 13.389654220430618 13.620435191148331 14.316276513742167 15.277285061294299 18.222407102259613 19.334078633565515 19.537088215350014 19.22302220968737 19.01109225366307 19.9626231027015 21.404090447265453 17.510406791972628 13.152046193971087 10.729455431876552 12.887037345096722 18.710330118212262 18.124087327883352 15.641395330887239 17.47034973821913 17.05032870039405 15.341612262919389 15.052950429151739 16.091459093931356 16.204998228545122 15.2578592749813 18.41510998043261 20.479529846057787 15.913184783974591 16.57488801661122 17.128135405104018 17.607261539892612 17.336520279753938 14.662792542480133 16.3857124459804 17.832610772017564 20.70510359148756 21.498175509143334 17.022582621904924 14.791107154254487 15.905545063585688 13.238010708986277 15.143441144338928 16.104025511899874 15.479308886255225 15.454585610901399 13.901906475581828 14.808074340975306 13.825689025788382 17.2916064100381 16.79243404269654 14.462991067597942 16.15367507270316 19.057199564703286 20.27315752270372 19.882458069304292 19.887971239735563 14.827268085876625 14.20374687077719 16.030063295564958 14.207717082332906 12.736318050607432 13.389351812428405 12.541482030494263 16.906547602638813 18.07708400534712 17.30915726215035 16.108110124229103 16.135888506562466 15.15760148508593 16.774062326815578 21.153524838377535 19.559554838400082 18.739695609622245 16.628898579846975 12.094112781058653 14.013969864951386 16.053055821993627 16.059018138137013 19.575132321152786 18.516788150154905 17.525133855176414 15.954138204882163 19.283969138681794 18.35775071197012 14.01485166634865 15.459625787607635 15.997585366507412 14.288279780506233 12.676077408915706 13.050930626047268 17.076353286099813 16.653099227242134 16.98632839598949 16.832402995420917 17.229399489443832 18.3667397320857 20.266144309621485 17.684726742260995 19.959400905017475 19.461517899284438 18.718410400237744 20.814728851502597 20.561930098492052 16.910508939722902 16.946365430535398 14.078963811758477 16.821283761358092 18.239607832732133 12.490459343607354 11.374199794375313 12.62512851137083 15.574145284713293 17.06445685282204 14.806798689850746 14.875206516337993 18.33673295287661 22.37481231998442 18.85263585291063 17.31033334702231 18.137973678365025 17.036156402564583 21.166769742899277 19.452120307020024 15.767236866173873 16.196460841535806 20.198677428103668 20.321264994641886 21.323922455342373 22.32327935940901 20.919593914898442 15.583778729265802 15.66446037495709 19.455108492490005 20.794126296452223 18.43784297317589 16.737621776618344 14.978583810733316 17.456902352949275 16.494344879100716 17.738078738461187 18.72251020523497 18.874119736793187 18.121881152188983 20.301637954023786 20.871794167995656 20.72449353964446 19.907290073727086 19.862789341640816 18.536831689308304 15.932508985615305 13.343266693809138 12.668068004118503 12.605949193272371 12.311924922830885 13.053879386993078 16.66363832921042 16.68383770735545 16.97523525984045 19.453296894719127 21.78169602573893 22.796509933346382 18.6824684841136 15.378965189344122 15.093567405846107 15.834910774440083 16.405108442658086 17.03945941852046 18.8376842986971 18.692430124560566 17.209849053916606 16.88915543809676 19.253210428728227 19.26787135169276 20.019038468731882 15.092841361436461 13.939011848354953 18.450065334211175 17.722136731797942 17.02134573963261 18.794376476217856 19.788832153351326 17.1933067465321 15.151471939397384 17.41178716696924 19.327177934577172 22.12105695736959 23.47020010111163 22.121652387901904 17.979244938926954 15.413002517632014 14.45492531453296 16.367707375018743 19.32779698740319 23.0095786248991 21.741056187371345 16.616819540525128 15.298473628651983 13.07886471433005 16.698663583195867 18.468496452620894 17.331120573500556 16.128524935289906 15.716733667854038 17.108024480252695 21.113929684913284 20.813987007770844 16.623512799426557 18.209784438533777 19.357904838286846 17.006261151784894 18.36429197455541 17.90032909235474 16.047374857699317 13.87380185020458 14.809290070666563 17.56098708399345 18.2538406014615 16.910859382543553 19.49244283427697 18.709368729527217 16.183468085126155 15.245918940633484 16.347897174404416 19.308586737245758 17.797126202348934 20.251755107464444 22.745571164897594 19.66991268489033 17.08470296928387 15.716389476643062 17.289625909702156 17.899127187451313 17.007867819449537 18.738479211945492 19.53416220501478 23.12834552495592 23.709291883521146 20.56922700646879 18.02290327082788 16.433897111870806 14.209511397479572 14.307418903449399 16.168378725485397 14.10589243966984 13.491427161747882 13.579458964433615 16.949122703060844 14.63907445797784 16.01283101262973 19.329882883663956 14.961058528986376 14.12978586716331 19.23767789781504 20.10675817702385 16.114422529174018 17.762699496010534 15.816845591755078 18.99147607650338 22.228140818940314 20.334725255052938 16.52816560432878 15.220039418889128 15.10217307004369 17.07973007736779 14.621655983532246 13.384514644777209 14.877221538356148 18.06571277201993 17.540840233717773 16.718234837992814 18.868426495189844 18.059082509701547 20.183048910458872 18.632589543942892 12.718032455116736 13.139548334964651 15.641859957368744 15.547389076436158 15.55243364083569 15.220533592832075 17.590736534063577 14.598882182087678 14.720661341153725 16.397374022511162 12.31984191341135 13.365059301578846 16.054806698595986 17.950363416060988 17.546043242167727 15.961866956345116 19.46289523345249 19.60256378387155 16.976591348591526 16.68785570889008 17.248449140574095 20.59385701189648 21.18997906085362 18.836037448928387 17.3067548207496 18.167414881658516 19.36586657378375 21.402652890147014 18.047871105352705 19.546710202303338 18.479739331870043 14.259873385931616 17.674019039498372 19.85387247130317 16.3242866497262 16.14896588935212 13.883140335779654 13.939623098641071 14.273880244587819 13.722290915421821 14.742530596455163 16.620128679038903 21.73406488819669 20.75443446081114 20.416336103933578 18.261383418253104 16.143215422014645 19.317603606942082 16.651950534318527 17.738538743051077 17.91815295983881 18.55398421274472 17.974727373721624 19.18679457492015 20.652297077355627 17.996174854301557 16.811406965394596 18.255253877961703 19.16436634329588 19.587771483964737 19.546435290871987 19.231625272523186 17.6429586836988 18.41568500509098 16.26711646722147 16.91853348896779 18.99495640288208 17.765549600350106 19.326835114043924 18.77685058207719 17.965336553578663 17.7896157197022 20.92528441292289 19.45144476928393 17.845416773785356 14.574509668293977 13.694473022954515 16.227587693565813 16.050724118525356 14.073105514860371 15.624146629141167 20.10235701251352 20.75210165324597 18.11047815662422 20.867342867427173 21.4138724884997 22.97117356248179 23.190135323027196 20.29659227208338 17.612185181408368 16.643212335381993 16.45930936822083 15.493059753862811 16.625476225829345 18.903133067504584 16.738741435538177 16.180232911919344 18.826762145099305 20.385551038799633 21.820222103946723 18.666289531799848 15.086745701484931 13.25717792531849 12.248433559075147 13.762801310404297 16.646804032389138 18.4861692157275 16.83847857357932 16.512035581115395 20.78402596713259 21.02773709887844 22.700567377048475 23.426120441380686 20.64699991408405 17.13929714730171 17.62603777353868 15.611778608275891 16.7824791960367 19.991225049664248 20.589323497957686 18.783261832019868 16.828020137150762 14.992326381239858 13.053695791818207 14.939271739506832 19.46483506841334 20.548412683979535 18.636654214369017 17.888978631809795 17.188983203824645 19.7839000162819 19.209200830468045 14.896102163291893 14.033660017232117 16.21710587928306 15.463706340472934 14.854298468169835 18.429450675502324 20.047190138367714 18.72489494899826 16.56890483073242 19.587772429561245 20.521754506775874 18.66210759534621 18.914927143552088 20.122446979325087 19.375439505383245 19.085796538311996 21.534457195539147 22.39057126752247 22.76981931168119 24.184484036239414 24.806165996121464 21.808105987853995 17.407744722442263 17.6173181320876 17.591735535039145 18.305829751938756 17.067666086349117 17.97244599470743 18.963071361962726 21.626175613313574 20.64088138179563 17.54304652277611 16.013389754235877 15.725229959525462 16.99391442910652 15.472887755533863 17.58869973070232 17.08597619015534 15.383756825835292 16.668599836766575 19.031550934731545 15.442066784227995 15.680989955395765 19.60820403197928 15.548052073987304 13.91112345467657 16.600970471530747 18.39666036061044 14.989623712322919 15.644582795132628 17.66030710836739 20.703427356031355 23.35166456781173 21.903372034160903 20.51090232187537 18.131028247946972 18.442885831458685 15.530016824326406 13.525874734950367 13.2794352431479 13.62732456427097 15.894664628750455 17.50192401073611 15.843177467253287 15.341973041566842 17.354092777068573 19.88512550104003 18.198034878239447 14.539443568742179 16.02076144090138 18.046892525383168 15.433374926167524 14.74104371425748 15.082006800324539 19.323275195559198 18.50043701769016 17.36276934808299 18.42552075226875 14.639665096912664 14.821212503034255 15.896117813748681 18.60259522633461 17.37148333251809 17.144149530801894 19.288166395170695 17.2519810070528 15.748197841314429 18.32813832409421 21.306633412984446 22.560317721193957 20.959962571415183 15.665785637658699 16.17946917921391 18.203888360217938 15.716769542752784 16.04947206041578 13.338790555474338 16.112905748568767 16.41944265714091 14.209600544600766 17.942829173292246 20.843723914960616 19.088641677376526 17.868511314888785 14.22370686293417 15.065484520932648 16.179703374330323 18.25893763696144 17.42959162345247 15.29996469732456 19.884281173484165 21.330005815545597 22.00937904845263 20.000601274485867 15.5205459604044 15.948169840871628 13.607544694326675 16.041012291085565 21.164745510573017 22.075019006859243 21.006448487781626 20.97573580462911 21.52774066156352 17.86749205547259 14.823526784609198 15.001349820037174 15.674584538574782 15.551098352434462 15.72738744208322 16.683372291653427 17.329462378106147 17.276679157553225 17.53269124083554 15.90775499908826 15.738748414182977 14.209047860305553 17.14565319916367 17.28079494742416 16.272109556138926 17.23898650235792 20.50647724153379 19.44357967835374 18.506072655433428 15.533305061827088 17.612739696215474 19.00810583276507 17.508513789426495 14.895632798684378 17.51860927928139 18.57051710670983 19.983627826679477 18.439389475290785 22.402571759043106 22.01625420521041 21.06252869337511 22.028789801390733 19.59270400386987 15.782182839226913 18.45944465498233 20.01632251101744 19.06824930045992 16.302028677218757 17.6049468568434 14.63503793525415 13.377523006923301 18.21612527577286 21.790254283082007 21.909184390968644 18.78423620148372 17.880990435627186 13.269905909393172 12.146796469162375 15.305281213826602 17.85990617638956 16.25095868281602 16.185644028447452 19.478187278395556 22.54579663025988 22.376888135549674 20.701961870670026 23.447182700942165 21.899206789043216 17.071451708557746 17.997719832722062 15.435180506429283 18.87673070363876 19.19873784661169 14.864685490475113 13.169806507516618 15.252117131662876 16.362042588787173 17.43911385500936 17.96542112982621 20.297049983100926 21.51291850854978 18.789310443477184 18.989983975678786 19.072283299592403 18.260746222809473 17.287153370318496 15.26967772895024 13.468555216709268 13.681279994258436 14.908822177437786 13.359134907813749 14.374874413454261 17.900630244306555 17.615165355113547 16.47385464012427 20.484513697159766 21.888474998027487 19.946275229746636 19.60029104000874 18.068643091681814 16.650578644134765 18.265307641835108 21.75454585767202 21.557408471535336 23.70319204962653 23.719062292926438 21.988796708435096 18.307188882781134 16.56467094036436 18.777844363895955 19.889934402087313 18.78751625641521 17.842221147308578 18.851825425753283 20.01152022411697 21.29817634625388 21.351291186749783 17.071549436835397 15.017843613434163 17.344571519495105 18.582378531244398 15.933611294067791 16.077778555798005 16.426725068950358 17.18830850515871 20.888954059765 21.379730710487703 17.691140019875675 15.487798505329986 18.726362753936833 19.638209118134714 17.86132345858114 18.77030621972208 19.414197908893016 17.37319007393672 16.13327501971283 19.499080526383914 20.721398466190987 22.012917093031177 22.559080537910415 22.894685860592617 20.39774735568084 20.453578684425093 17.912779294450804 18.649515656926685 17.816132904108827 13.922758743938008 14.913440685264595 13.705361649051099 14.054298354401748 13.702907562416268 15.827209203117185 18.31555070161817 18.688316957374102 15.294517108572476 15.909074913778603 20.842006738510143 17.895221849812646 13.865928062304214 14.810812939794172 17.022321650732557 19.08231882629045 19.64640154212849 17.821732896954444 16.177167760909963 18.219817188328186 18.082319523613794 18.385240622131207 16.736072758642976 14.575621616376653 14.961127886499643 15.002771754491532 16.91487656984595 20.28027878540256 22.259709635502862 19.657470264128975 17.785244049825245 13.166455398562409 14.366101713593638 15.351835751194914 14.065842117458157 12.744354620851496 10.821926382783166 12.508358377267689 16.8691071014647 16.867264716690464 20.64856488071601 21.90639157736802 21.137807248310573 19.262973475801136 16.88649840252592 18.99465803317343 20.05416515881663 20.808159857794898 18.611195500285028 17.227934932922064 22.12625598379778 23.822794661044973 24.198479041665024 22.338135621908258 17.82096205793061 18.276402024136704 15.376881304824142 17.395316724080807 21.880324081216806 22.647865446539463 19.142771892959846 17.67583340024415 19.75421860757166 21.223644073001644 18.516213378959446 15.929634653096732 19.057556365668432 19.580223892633256 18.141918666393654 15.628196251865345 18.04458745132211 16.092618556696785 14.677682474675388 14.930178047040402 15.684051363511513 14.277448991935803 15.178624785466804 13.528795208385896 13.141682123430103 16.47489012273037 19.258513872395866 16.56992080486982 15.058542915458709 15.852115861618664 20.388907166971556 21.490701172921078 18.975004258993145 15.042751191234393 14.271675696833908 14.781241543338233 16.201104307517546 20.703375388685267 23.014950518492455 20.504099186721007 19.23455070969145 18.252662861470156 18.88879590973236 14.425058281616579 14.087191690991556 17.98510184233833 20.345141796764587 20.885772964727245 20.867422513295182 16.271622320929442 13.029780909141408 15.290317250908 20.140562953151047 19.29653228211421 15.788060056400216 19.043849552644012 16.066888632694702 13.800516770142417 15.896689829094205 16.1648329461347 14.436263119116367 12.969815818706747 14.974400933678286 17.622561201145427 20.47061630162794 20.78014814319577 23.344048253637656 22.177725436400735 18.490388274665467 17.646516180697656 14.894927907062282 16.097619556128308 15.783264323216565 14.391916713885486 14.531865506352727 18.471142216113613 20.683245867627083 20.173635023116738 20.170048080707776 17.60877704031932 19.176509979205793 20.212334780003154 20.76329669256985 18.9589960984428 18.18327005726831 17.120294443492842 16.352120499518854 16.538698500532433 16.195961272545457 20.09751976264108 17.91196461680419 13.58934475459564 15.552141676702602 14.404494977937196 16.371085332300904 21.439687863266947 19.583245563328017 16.471714944494046 17.879290933550354 17.194307934800854 18.19287391325068 19.20724550642885 19.515368958045837 20.001782839141136 23.332925527451472 20.98059197736568 18.96587767726125 13.63066180389992 12.84249313947216 16.457930473931317 20.5700604955505 19.5940515607574 18.751662506018334 19.277937685382568 20.398586891559304 18.258300076693423 19.75783468099317 17.661916729979673 18.47894930426345 19.45422984392633 16.301853224836176 14.767145767165735 16.32675457809525 17.823803137304587 18.36693358521669 20.99401563698346 19.9986567283746 18.820431530720374 17.106835875509518 18.60752776955499 21.456386492140627 21.738380388594884 20.096950163940267 16.071317965620604 14.47231446687355 16.87970108786872 17.13563947969022 16.68679017256302 19.24667975420323 19.825908992002205 21.550212684018874 20.14877211827094 20.01906046553495 21.676180233977632 22.44599530876727 19.33718569507933 15.626925387358995 17.69016063384494 15.598446395679202 15.777482413695092 16.585384278797637 18.577040216719226 19.916837927260413 17.74880965206436 15.742392414680126 16.505089884699647 20.765730729482517 18.33511654775402 14.429803048563507 14.538859071682104 13.699410072770421 14.479567386335097 18.724888632146207 19.76264601800532 19.64315373523933 19.63712867329125 17.220056732145295 16.57401935687618 19.79880373741168 19.606807625498533 18.6718114931741 15.705560716491869 17.61752990343454 18.418733963511634 21.543743904939333 20.14365320530448 17.373312749482654 13.728985043567427 12.872977241499122 12.628558681563703 14.36391587868216 12.01834638140284 12.195756345724979 12.046882174126964 14.349131338150091 16.209222148968358 22.01999523409289 22.48016806026781 21.510118855580725 20.656083683105162 16.805990967951477 17.78945625413995 18.381733337849735 17.688958522576463 15.497877790045711 14.479197764471266 19.354302019178462 22.254826463829037 24.24444147842931 23.916705698059886 20.25037802372772 17.559523853061158 16.060553910130913 18.236486196383296 21.121697433425652 20.948514112951088 18.187312692637725 19.909584592172738 21.70760147624108 23.376199681894178 22.205457687122788 18.233716311161853 17.038351933057506 15.85275388121116 15.231836703586884 14.673047573765778 17.465457714141145 15.569787203080152 14.930546777398531 17.29435197671883 16.762378943091406 17.945097510942293 16.63367927040396 11.875723631806355 11.461698962585077 15.988880424950406 17.52377299318353 16.13288578053711 16.147292254279233 16.29725155992177 20.24820654670435 20.60861264903855 17.01340879866257 16.314328494189585 15.808643312169577 17.388889214348502 16.791847983143885 20.267842144173066 19.927326619664175 16.556406155442463 15.664083243592696 16.9330351425471 18.95850204614422 17.80290411438417 14.512987256424992 17.776239294897174 18.616808737241055 22.604019697260988 22.121906641947998 19.360831638975363 15.846445532778516 15.16315375504085 17.576211060650355 17.773850004609933 15.48192685015261 18.998028616141433 17.21125510166222 16.031359084510253 18.98149689209591 19.010453035275265 18.36950093802585 15.218299726470585 15.45698098598733 17.924313931516426 17.587849677074615 19.824550301834638 20.598360513423724 19.037365854646122 17.26822870285596 15.13099951197786 13.119032788705885 14.627348105650693 16.723400278183842 18.59009192182549 20.546737973741443 21.49523947062951 22.421011238402787 22.18582727540317 22.146196246338594 17.18857057384023 19.259324867548308 19.667296422088807 21.43221960459654 21.40666698880162 20.167299657805177 16.36675296906052 19.35501742405375 20.21458988375871 20.43572123840768 22.205724527218713 18.607082156886413 13.834174643615805 16.92891886975388 16.087674262035886 18.668629699401798 21.940673651410027 18.597482859568647 16.66213056618175 17.648355027149062 19.708537108169363 21.15852588887643 18.93905852857221 17.88478577062721 17.618662356727423 22.32301414705199 19.29921182535723 16.73365167740739 13.294200612129202 14.279349978859239 17.176679611638704 21.556379449259392 20.34000188245077 16.961446438150624 18.98679621680976 19.831237592020084 17.08336236557622 17.313439776899585 20.348479611464825 20.447865528090812 18.74137461737707 16.774290384043056 14.774268388563433 15.949619449649934 15.566243736517153 17.788654240261984 18.70235841615662 19.51451068882112 18.39099578272748 16.653930189239382 17.441545771752335 19.28159068221519 21.037767422464043 21.024701838995277 18.33700750700514 15.606767771640172 18.714340646417025 17.501233073118378 16.383624582592972 15.58418017223076 15.382795039929817 17.28211883503351 19.000637808063683 20.146697896409833 21.460154504442542 21.421931290581217 19.418527148032716 16.938595643532846 17.97212227671743 19.21669275241039 17.6509983635338 18.75175434860943 19.28551999861589 20.398136934423064 19.483966508625283 17.738746606006824 17.922120996102652 19.408808108248657 20.87198982082919 18.69386108343522 17.0188781365095 13.45073751070431 13.92056801718507 18.45001740219322 16.668599786294536 16.14190756483599 17.43129125399004 16.172500647829807 18.444705055394827 21.949865522438603 22.89469077579978 20.653545776405082 18.41848300604092 18.813876773618503 21.043377158284283 22.00171367012017 20.113936999625274 17.216771275339166 14.044518605850314 12.110917912153065 12.965655623426567 15.812715519652475 13.823716031404944 17.022218176734942 15.15063974180617 14.175628489405767 16.43096114534007 21.293248297809104 21.240299064505248 19.816732102095 20.852688798710567 18.07740346932117 15.679107397888984 17.79024674120823 18.7375068102436 16.27751585399933 14.329176207712086 14.803181775999146 16.313048449308162 20.645255037249882 21.82642186685716 18.629097800677528 15.265942545857179 15.35140668914455 15.60633673390732 15.874609022727146 17.738557277424714 19.728985849900923 20.506633227050944 19.9987474671876 20.169420055601122 22.070348340960955 20.593862932501686 15.68454399665769 14.396152793492382 15.330764298493122 16.562118731622263 15.535215708475045 12.922422470390016 15.357544540018065 19.128472460007966 18.46043814551889 18.605699695780537 15.422077022164457 11.427018241246934 12.271461443616206 15.412675469858556 17.406027631946543 18.13339330022141 18.917352987599056 17.234184166298224 18.547305298381744 20.441068603770287 18.339762317884414 15.544857559178396 17.834941191523093 20.72928536372832 19.19507091870566 19.99285232725664 16.25377043628699 14.99689377066396 12.327225959554415 13.214585801129418 18.525113593907783 18.55171940141709 17.654213888270917 20.517518271242803 18.728204283873215 21.441529804724578 21.58560772119759 20.492217842632474 17.56183267436783 15.617609334079663 18.633467233622657 21.036912205117417 19.770872091057072 20.563129787447018 20.45288926094907 18.43173291434674 18.438680635154036 17.532814522324433 19.779073210045855 18.86070929557809 15.109151638990022 15.826802128219846 16.39209481986728 20.752283858337705 22.062943371425938 19.652272131077172 17.897621092595095 15.703416732645216 15.5812653938743 17.85415533649803 20.6433538874257 21.190986644655553 20.868231319527634 18.21353801992294 17.079087452620794 19.265947411962525 21.234188673189138 16.90482054709523 16.603053490038683 14.984225367225369 16.573014128108795 19.39043975229512 19.23860965836959 16.374566924863885 17.56164007468391 15.652955701342206 18.65243647646763 21.67435264922235 19.415340671330572 15.823725287817494 18.94981419474705 16.969782144968544 18.210568017140826 21.21171433352429 18.536812348535264 20.346397996115666 21.244707078251682 21.03208541687886 19.746570413171217 15.605247146206679 15.68788841544954 17.105594575880147 21.071513420873995 18.47273649958224 15.112875392075903 13.558534926839226 16.157573540458987 19.639653674507066 20.36632831698838 17.55873111453432 16.70563790461151 19.242747682702646 19.202714010396075 15.351066579277056 16.142360915872516 19.62321827938779 16.647879375181052 14.812034867593797 15.950054872171034 14.517047053861665 16.36386153722422 12.8729016668672 14.23411868771378 19.137230243968368 22.182729297848987 19.66078038799258 18.17304464287371 19.812928886973584 19.318660555266536 17.926789743670202 18.591017826893932 18.64435909281892 16.250271692172785 17.349441131356887 15.240627728546873 15.373513734997696 15.540692917608887 17.30833802185935 17.51427346087502 20.173046439213667 20.464369225538267 17.574596379483793 19.122262794964552 18.457018218500547 18.441411028885362 19.563880424091785 22.983395468054354 23.182232294693645 21.004649983302166 18.544702746212536 17.78023812287994 18.803076876953895 19.236185082482233 20.518220710724556 20.59247089385809 21.940008968822273 20.623414052019243 20.13484453894709 16.10944223134562 16.342803284199384 18.77483885286224 15.847565571232838 15.608317653922201 15.804533839603721 17.907397108275088 19.787683381345957 21.44630600294133 20.39622126655873 16.553595408023575 16.022403856842637 17.289000421479496 18.759556385864027 18.56011164580984 17.686454857330798 19.17171069642231 19.30174180459158 15.538997055102598 14.