# vtk DataFile Version 2.0
Really cool data
ASCII
DATASET STRUCTURED_POINTS
DIMENSIONS 200 200 1
ORIGIN 0 0 0
SPACING 1 1 1
POINT_DATA 40000
SCALARS temperature double 1
LOOKUP_TABLE default
18.32979036592646 18.059353489527663 17.7534090724173 17.421552410028717 17.07433245849499 16.728611147810952 16.413050369122043 16.166847296237844 16.02946672874129 16.02633870426996 16.158234304807507 16.398478834841644 16.69731569115619 16.99151283243533 17.218463411404134 17.333025896459304 17.321647266786606 17.206675566975747 17.037803565926584 16.874627302439574 16.768332713292768 16.748933429754604 16.820184124293256 16.9614499269227 17.135324091812894 17.299584202818185 17.42049937497078 17.482439496631613 17.48892713807614 17.454446952576856 17.39242248169183 17.307661384016534 17.198080706015894 17.063400397390936 16.913875407803538 16.773163031607513 16.673784895019974 16.647342597544828 16.71321641326278 16.869770912486803 17.09160744362857 17.33457643333515 17.547163321651638 17.684147845101986 17.717827176095234 17.64356579037233 17.47876234806056 17.25665020951717 17.018032292183804 16.803928672243526 16.64989237764029 16.58062507520874 16.604213780533804 16.708278123591942 16.861841471393465 17.024310430470706 17.15837074461625 17.240961273167894 17.26779223541023 17.25062462880313 17.209931485956368 17.166992198109206 17.138742696939595 17.13637162547333 17.166010828705804 17.22883882228487 17.319527009096834 17.424804879339263 17.525105406339797 17.60034437510363 17.637510184588844 17.635905453189604 17.60709868346955 17.569892553906435 17.543534804168548 17.5429932786209 17.578000337760013 17.65441472128576 17.7748941837317 17.937232462830558 18.131661047544487 18.340185802146046 18.53998309737083 18.70992427459174 18.836877466934123 18.918278147100494 18.959443018848713 18.967007310615713 18.94230029269831 18.87901473756427 18.767304973523764 18.60241547189162 18.392785369765473 18.162556683230488 17.946514488758584 17.77974191132408 17.687159113349654 17.67776088628335 17.744952669660517 17.870727196315514 18.03060923352646 18.19816505495892 18.349281330299828 18.465535182063988 18.534824011351517 18.54893281169973 18.50110569084884 18.387624807631436 18.213488964235243 17.996987388181466 17.767322306323678 17.555036327772136 17.381669730172682 17.25617283746645 17.17997377815608 17.1555812119031 17.19135925998383 17.29876674039003 17.483905087669523 17.73839643770208 18.034515157659 18.327662304853245 18.566793241152844 18.710151175427733 18.74012135203612 18.669687548712524 18.536371090107032 18.38653390327208 18.25837084423203 18.171395755894626 18.12481167306518 18.102113042427842 18.078245198748544 18.02738576183966 17.930491113532263 17.78112354089544 17.58755797222625 17.3702273119912 17.155475333651978 16.96795140565707 16.82445169457543 16.73171273239674 16.68924907065961 16.695736272785606 16.75493696379291 16.87671767294297 17.071265420701042 17.339010572220726 17.662180690398003 18.00380182160981 18.315952867469406 18.553473301724487 18.68595275373883 18.702431222574585 18.608721388183657 18.421957798737917 18.166928014562945 17.874729148801016 17.580806477742374 17.31989393613376 17.11894267610509 16.991926961669478 16.939548615722114 16.953159602521474 17.01931798758208 17.12199187175444 17.242634757825236 17.36084955832039 17.45784452508163 17.521977585611488 17.552921710881897 17.560767427111127 17.559335506600597 17.557201380686458 17.552024404988217 17.53167732302423 17.480934913541976 17.389073797002457 17.254249840652143 17.08384368173867 16.89275524831081 16.70167502077153 16.535446045119407 16.42034036443658 16.37986587404768 16.430396851418358 16.578303226180818 16.81894863190539 17.13665873900221 17.50509173890256 17.888942906114828 18.248687756684607 18.548673451581227 18.765861537081843 18.894457601607154 18.943103139437305 18.926039698614037 18.854012543118646 18.730656657057285 18.555524138768476 17.938533288832115 17.711962604860936 17.46954334314072 17.21399128786592 16.9475387332433 16.67855675847237 16.4285427900509 16.23228621588991 16.12846566677139 16.145214845490838 16.28832960250744 16.53673252552031 16.845214088579674 17.15309606730162 17.398236400244325 17.534435502309652 17.54642301379235 17.454954020061308 17.308659288000243 17.16646355141036 17.078635425319373 17.07327203422694 17.150957081706384 17.287315088863885 17.442103613697434 17.572687939848137 17.648027582099513 17.657657072894672 17.611047100807127 17.527537350188812 17.423278320465926 17.303971070954454 17.167762222897434 17.01489823622895 16.85635441315536 16.715627036120484 16.623157912674937 16.60667672286224 16.68145033544831 16.84350387937722 17.06784185775087 17.31254650376187 17.527972532416708 17.668565886788432 17.70396089365706 17.626195400406402 17.45100366570232 17.213194840865704 16.958404764589012 16.734254869906604 16.582375480985657 16.530876310028518 16.587391112173858 16.735329818994714 16.936921206798537 17.14384589344822 17.311750644453184 17.412587511609505 17.44015845666024 17.40784877097723 17.340808205499147 17.266497333795613 17.207363152279612 17.17762439059551 17.18354270695926 17.224798729199644 17.295022073515042 17.38163587296349 17.466914573316036 17.53186898822121 17.562442149136704 17.55523184589388 17.519448604822514 17.473784808600076 17.440084525475324 17.43761657730387 17.480625553646167 17.57859136576064 17.736225130193816 17.950933224111697 18.20874773294515 18.482603293745246 18.736529753933976 18.935684021484708 19.057860553322467 19.100367248938944 19.078173215909597 19.013942618228366 18.925395537258563 18.817378754178623 18.683362321753368 18.515154177840962 18.314434713176677 18.098787333059583 17.898578998274036 17.746652898103324 17.666754256589982 17.66653383093149 17.737245558349773 17.858117831924805 18.002165887034003 18.141841856731606 18.254261017247106 18.32495006503833 18.348104399355307 18.323080062664 18.250439747571352 18.131959955823252 17.975163805817058 17.79754551157519 17.62467353142746 17.481548086198977 17.3831308908664 17.33138835571777 17.32099565098522 17.348853706956657 17.419890083972447 17.544846891517963 17.73140365248831 17.97380220376358 18.24673763884169 18.507524589184623 18.707319469613523 18.8079374511502 18.796962103304203 18.693196657930592 18.538934083633148 18.382956821711243 18.263127441261275 18.196078280064054 18.17583401584741 18.178724807033763 18.17156595476645 18.121610341387164 18.00682115052268 17.823514343369872 17.588098215918283 17.331882676130572 17.091123274706487 16.89631309992035 16.76466485153699 16.698384669619703 16.689153831172092 16.726521520700178 16.805713158954767 16.930206832245926 17.10710123766169 17.33770008491809 17.609138106632518 17.89275121743685 18.150942813676487 18.348886980319712 18.464285938446825 18.490149017751897 18.431028807392074 18.29769138860276 18.104867200452393 17.872316479971605 17.62557950961715 17.39313092308095 17.200435807108246 17.06455401887859 16.992387241563204 16.982299046142433 17.026309112643037 17.110814965593843 17.21664826373876 17.321026705725277 17.402822196734014 17.44952741056953 17.461863708199267 17.452277485604686 17.43705097958822 17.42632509304314 17.418294005797964 17.401031160517174 17.35991112462346 17.285159281651286 17.17538120096951 17.037037152130246 16.882564609420637 16.729165365368345 16.597835228306305 16.511115018845828 16.489324837335598 16.546802358569753 16.689632992056133 16.9147154376088 17.208943520986505 17.548219718578704 17.89799409412008 18.21777126087086 18.470126453395203 18.631103132767585 18.69638147673341 18.679107378464582 18.60047746618584 18.47912692579303 18.325724831282933 18.144572217890822 17.529354673776233 17.372667257012314 17.22089450091413 17.06721199073578 16.902822438805877 16.72538511139998 16.547945467646603 16.400752035657156 16.32267851893145 16.34638683477063 16.484973060792576 16.725302030497534 17.02878919629994 17.338750420557805 17.593908590390146 17.746191078790975 17.77697766237564 17.703937403700547 17.574239527769375 17.447080519598266 17.37345565334789 17.380886314293537 17.4672038150797 17.603850065188087 17.746858448619342 17.852102360352728 17.889911817429926 17.853400935512955 17.756530583014246 17.622918525127123 17.472282841384406 17.313197996028588 17.146069229683377 16.972535376065935 16.803475868186958 16.660187446964557 16.568831413129356 16.55193159993644 16.620755937785653 16.77062259535267 16.97978085297369 17.212062111132344 17.423237888142566 17.570322120875208 17.62190267104064 17.566492156140438 17.41585229624691 17.202075482137797 16.970042016287252 16.768275603889236 16.640008029716242 16.614506527213894 16.699266417692794 16.87604460468453 17.10434315125177 17.332842958749097 17.514705927765757 17.620498118574176 17.644089063106115 17.60045447081472 17.51747314207686 17.425525714907938 17.348901794202078 17.301701566909866 17.288413400500403 17.306939173978932 17.351122244024353 17.411291589447245 17.47381406821955 17.52218086849456 17.541323174863667 17.523990321224723 17.4754655013179 17.41324235513021 17.361669988567513 17.345042198922336 17.382951154660894 17.48876673989973 17.668818268521935 17.919498311219925 18.222623933191883 18.543171008530603 18.83410429963615 19.049148866288537 19.158613281981264 19.160094471439326 19.077641681401758 18.94903559237195 18.807800614454873 18.669948841520537 18.53259221120034 18.38405384888008 18.218119499265402 18.043295621914034 17.88202187568564 17.76138643743262 17.70157371241105 17.708382121167578 17.772352557816415 17.872818109767543 17.983796810610464 18.079988065203008 18.142271297154014 18.161378712452446 18.137699920603982 18.07707678135038 17.986002703793243 17.870650281391885 17.740406095822706 17.611418002889142 17.504726435678865 17.438427990304376 17.419442824451142 17.44177557483354 17.49322373230802 17.56572958883568 17.661811182021854 17.792502929785606 17.967888375158854 18.18555502795643 18.423441174725493 18.641848978757295 18.795464629632516 18.851027278847866 18.80219396770353 18.673350834617523 18.509802013892088 18.35966759424516 18.256991529472618 18.21294666308248 18.21582776007581 18.236655809017815 18.237767023243446 18.183512784584178 18.051628673774086 17.841645439666497 17.57632225833927 17.294895806784464 17.04084879546809 16.8491029824105 16.73728475962566 16.703890256565582 16.73361102129261 16.807233567191922 16.911283596688243 17.042372232630907 17.203915016547807 17.397512816477047 17.61485048098504 17.8357428323368 18.033825380936626 18.18612019512585 18.280094241398306 18.3140194107308 18.291881958359046 18.218182861825003 18.097138384625527 17.936075451784493 17.74884694768601 17.55542638809116 17.37763807669527 17.23420431067262 17.137977716668765 17.095336663810702 17.1057498143507 17.160518833928222 17.242219486570946 17.327353768479103 17.392949199014105 17.424703630008537 17.422196938342854 17.39744485963572 17.366831812076594 17.341095275942298 17.319800864271322 17.29351603423217 17.25107329097023 17.186121328322038 17.099204552527933 16.99621568199272 16.88650789508374 16.782482561735787 16.699569518356025 16.654665952169857 16.66291641670079 16.734639762131366 16.87384161346885 17.077714968069337 17.33547871201254 17.626291569292505 17.918503603999394 18.173460840158544 18.35484799781138 18.440232410831303 18.42847301010576 18.338121242208068 18.197559022517016 18.03311397600162 17.862081046922064 17.692940921716506 17.15744381946697 17.084447665600134 17.036547620661946 16.996222042594884 16.94220658457319 16.860160019706758 16.753934884036592 16.64922646368069 16.58573605652256 16.601675842088 16.71860781424482 16.93255778768642 17.212861475386365 17.50811543486574 17.758842368447695 17.91526661032267 17.954767113668975 17.890973630476747 17.769127219424036 17.649177058450736 17.58407399727369 17.602103146942106 17.699223032885115 17.842896773120604 17.98498221590625 18.0787537536956 18.09410435276242 18.025403780107286 17.888908451916144 17.711355252226102 17.516451524211632 17.317303815667138 17.118354371303557 16.92338765633718 16.742516846388703 16.593283496680392 16.496146821712433 16.46798430499664 16.516908673232628 16.639462101089567 16.81972872341378 17.03011141429105 17.234487865863432 17.394614220416592 17.47920603884276 17.472877044545736 17.381093282843374 17.228990576968453 17.055183409709443 16.90348141960642 16.814305830245544 16.815872819548183 16.915937678956627 17.0974281229253 17.321801841382253 17.540496168815693 17.710038187921803 17.80437424106281 17.81994931603619 17.772861771324177 17.690455411458895 17.601096185733308 17.525930959246654 17.475337752031006 17.450543280913934 17.448211382170523 17.46428824142296 17.49435220878278 17.53088320814522 17.561044634845008 17.568894495478933 17.542471430237253 17.481619837763088 17.401056123386265 17.326543709729744 17.287013093000596 17.307502918420685 17.405465608507843 17.588969579311815 17.85373087781578 18.17847683959714 18.522509393513676 18.830897101940103 19.049032811440068 19.141613829609636 19.10649205447062 18.97504477715019 18.79762621506161 18.621333155687953 18.472086859147353 18.350284028421726 18.24063205102415 18.128333043676946 18.01120920702584 17.901577857480937 17.818844240016922 17.778858608244292 17.78637352652363 17.833379544540175 17.902155661145404 17.970479913066377 18.017387927948743 18.028598313121165 17.99997892306952 17.937002745051156 17.850218231040817 17.750162088857593 17.645918959458946 17.547863700131657 17.47036359049989 17.429609788363802 17.43643297506731 17.48947962675017 17.5750078758393 17.67473606782915 17.77683265768279 17.882598257433454 18.004283929561073 18.155029113963014 18.336350130942122 18.530151527836505 18.7006258787659 18.806899102935272 18.821220277303336 18.743179324512326 18.601536655860908 18.44225857785396 18.30970503997257 18.23111858691997 18.210424853745813 18.23046046919606 18.259481469313844 18.259474538558027 18.19614511407481 18.049728000423308 17.823122661459074 17.543139553965602 17.253375214050156 17.00125942094629 16.824244450113678 16.740057722297053 16.74422846485364 16.815525249540823 16.92690094888687 17.056886743531184 17.195765069704475 17.34357951807117 17.50212588490838 17.667034767262436 17.825683686072466 17.962104225738955 18.064759267519772 18.131064527558934 18.16536311392342 18.172490500877085 18.152551146082118 18.101127715969422 18.01433175721336 17.89431507992652 17.751209420489815 17.600981660619055 17.46165801494323 17.35020331075256 17.280070305147667 17.25820497573895 17.281651383666574 17.336094177176566 17.398874734318888 17.44653915626186 17.463731352047837 17.44864355567526 17.41156905934191 17.367081610490345 17.324768348768696 17.28473074652285 17.24042540959196 17.185585297759314 17.119296103143856 17.046099976253352 16.972961645781428 16.90700539579977 16.85571568147275 16.82794240980444 16.83333142235508 16.880014601654786 16.972496285476925 17.111125571553142 17.29222466240675 17.50684672341835 17.73784644464664 17.957948794266166 18.132684597907716 18.229583926905242 18.23017128967615 18.13794085350506 17.976981848801394 17.78183394527124 17.58492070043586 17.408687081645567 17.264855766971795 16.87668310492356 16.884825424122525 16.934987472194237 17.00009749211637 17.047240439833317 17.050571250739154 17.005006461525483 16.931734740302595 16.871092458671054 16.866404739110504 16.947146879304317 17.118155040812518 17.356927702054175 17.618361178141896 17.846307445100546 17.990684653153302 18.025531969269775 17.96024045425045 17.837497756752775 17.717614162484338 17.655776553855652 17.681981686971007 17.79156034763962 17.949016880924464 18.10233662685873 18.20144199953156 18.213920304125946 18.132765106326342 17.973898527290594 17.765437725243125 17.534738028768665 17.300264396595725 17.07167095970528 16.85558707345177 16.66130888996092 16.50219637992389 16.392857676478414 16.345090667403912 16.365108302572786 16.452242343744953 16.597886978761277 16.784245116596004 16.984367452028067 17.165730127232 17.29785773272958 17.361339287411603 17.353875950532135 17.29065349128697 17.199886919641344 17.11625731747317 17.07371102158953 17.09737592073827 17.195380846563307 17.354213546184372 17.541702041370055 17.717840070667638 17.84861827540404 17.916293411859055 17.922184642150384 17.88237163739622 17.8194652586496 17.754119027676268 17.699194732021983 17.65835671404082 17.629199351449724 17.6087346981301 17.597336193260027 17.597861325511055 17.610206275969976 17.625833816276693 17.627996951859103 17.599466090106716 17.53335697494664 17.439747217442868 17.343880922395424 17.277887750032562 17.271609497436728 17.346682191520852 17.513596254638507 17.76867546300711 18.089679248441655 18.433332713352158 18.740510604206126 18.951604900284558 19.027478065807887 18.96573417606046 18.802491267137547 18.59703039311471 18.40659413760715 18.264672849420148 18.17380821501531 18.114664582961762 18.063537863905424 18.007088141474437 17.947119738574695 17.895574914353535 17.865198541746015 17.86190265317209 17.88182120388735 17.912650950895497 17.93756229425224 17.940398052168106 17.911020837164262 17.84879627474929 17.7620553874919 17.663660288202536 17.566051827940253 17.479678564896076 17.41510789892588 17.38483371101186 17.40062624642835 17.46683774274457 17.574927642067955 17.70475833018646 17.83343551983594 17.946663098249292 18.045439116670142 18.143730555518566 18.258036176844808 18.39420757165452 18.538771747117327 18.66057631081364 18.7236826326879 18.70565770370971 18.61089189792686 18.470483837384442 18.32846567793908 18.22285731976748 18.172212070705704 18.172628468146783 18.202595615401673 18.230355590282024 18.221293024880964 18.146031417209727 17.989380340126726 17.757391977694475 17.478566680965294 17.19737831487566 16.96194289945219 16.810198371633973 16.75943020875721 16.802835149469395 16.914520806675213 17.06107270619962 17.214494956388183 17.36008013394072 17.495473249132665 17.622919554619138 17.74125252374996 17.84369868562294 17.92240601123723 17.975090223011716 18.007726677196562 18.030717543624156 18.05139010306914 18.06854484439972 18.072914478529206 18.052763514219524 18.000497135342272 17.91647879427179 17.809188171883942 17.69323561981227 17.586623346311136 17.50708204022749 17.466956095596455 17.467914100060216 17.498688621257266 17.53843372881031 17.565016665318574 17.564163510481627 17.534402551446348 17.484928214564565 17.42780360688452 17.369839556908673 17.309896269255617 17.243120576954603 17.167939067113167 17.08972560245232 17.01869967316033 16.964923183111072 16.935037827646276 16.932556343841764 16.959718917939743 17.01812653479861 17.107724031977785 17.225935747938745 17.36821238323898 17.528862622027628 17.699950135407654 17.867918428580783 18.010860750583912 18.10062886504122 18.111338801876897 18.030790004772975 17.867957830404766 17.651351959696235 17.41894582161868 17.205935620864977 17.03712398905308 16.925956502851385 16.729399823636832 16.801276372317943 16.92556804143603 17.06904094992562 17.190442049461435 17.25510633164337 17.250640697495417 17.194049255300172 17.12533774054866 17.091010436124566 17.126137251834788 17.242397299235172 17.424540919566393 17.6343175831659 17.820774330501134 17.935938183577772 17.952413586129783 17.87596541000673 17.74601021767409 17.62190037079248 17.560171001810108 17.592769366971 17.715722478745437 17.892279066103576 18.0677059829786 18.188517229063272 18.21859675541613 18.14720569398306 17.987312052672387 17.766249506273947 17.513769129456925 17.253385920348133 17.00029563904915 16.764575330558618 16.55541331793598 16.382877966267408 16.25692882895119 16.185738957740067 16.174971064033187 16.227496992288923 16.341894852056377 16.509377420636266 16.711338281850704 16.920703432832553 17.108209723138444 17.251023438485216 17.339154318189358 17.376879685338213 17.380007553336153 17.37145606021971 17.376100799803577 17.41415397875247 17.493718170786067 17.606311197234525 17.729520652474548 17.836700670324497 17.908418912636844 17.939161371104476 17.936461422848204 17.914552412594848 17.8869640156354 17.861493602132693 17.838802112820613 17.814474920627987 17.783657970965248 17.746266491097554 17.709489744002628 17.68472108113252 17.679410447535254 17.68897220659769 17.695531300092327 17.676220978953324 17.616555694059215 17.520323681267037 17.410096134193093 17.31922563571702 17.281193188321527 17.32172749042586 17.454643298092925 17.678618883064278 17.97299508133518 18.29520841865588 18.58557490583197 18.78261105948969 18.844909633624678 18.769143816699383 18.593360127850712 18.381733781401408 18.19761889341354 18.078970483898775 18.028628298906504 18.022459808490794 18.027901693256606 18.021174209417925 17.99502740994911 17.95618286873661 17.917137625283626 17.88801193185972 17.87175704526139 17.863245951220897 17.851515093201755 17.82430325659167 17.7735247656497 17.699223554118362 17.60959955244115 17.517151448471505 17.43415585021278 17.37109136605515 17.33815695890006 17.34619188096208 17.403513615304536 17.50961156762668 17.650815297119628 17.802765573555558 17.9398480741881 18.04657785461081 18.12420509378293 18.188438799620954 18.259015266894114 18.34619446423781 18.4414822075884 18.518770387672106 18.54700589155102 18.50817248327638 18.409645936122676 18.28252200082094 18.16669876086898 18.092415687371272 18.069179931275652 18.086006877677022 18.1187300601783 18.137963760583393 18.115141371260258 18.02805632374753 17.867201588822912 17.641265393948288 17.378369233163994 17.120887982355644 16.9146777411866 16.79608548810644 16.781200943276115 16.861454583646946 17.007843877617017 17.18265635831785 17.353519745387903 17.502613596929674 17.626475034798545 17.728182394841415 17.80895799065531 17.86576919360434 17.895767076931136 17.902533761309275 17.897958520269654 17.897561650745452 17.912467900642792 17.943586441048467 17.98148805043557 18.011309842203527 18.0192558972571 17.997513928361574 17.946519850908366 17.87507799371896 17.798653515654646 17.735288015424562 17.69912386232851 17.693818328344978 17.70986861013161 17.728484114787328 17.73052855634773 17.705456025299227 17.65492259526649 17.589038641001014 17.51799599220414 17.445086584528756 17.36630389960486 17.276670620433574 17.17793041020245 17.081244989980796 17.003056039551957 16.95793037501508 16.953798184562103 16.991747918047036 17.06835629749474 17.17748435103361 17.31071830546519 17.457888872194477 17.608704414370187 17.754319994983348 17.886663528008164 17.995214678719762 18.06410030290648 18.07352365702862 18.006911894533975 17.860444846400732 17.648782329777386 17.402641794881873 17.159339560155544 16.952141967362454 16.804257928582345 16.728596754407256 16.735117934177993 16.845140401137236 17.00861538801418 17.190802215606748 17.347225418889067 17.43894685304958 17.44929304403846 17.3919961305248 17.305486542187055 17.23658787603216 17.22242777664037 17.278363459594527 17.39450990861429 17.539412346421667 17.669071955964878 17.74048227644921 17.727501788617904 17.63353730753595 17.494073710187067 17.365520880435863 17.303824364120665 17.342246743357496 17.47853766965083 17.676715858374696 17.881218411273487 18.036011931642726 18.100830479874784 18.059681344646584 17.92043338853244 17.70733341731802 17.450487289834165 17.177041901911995 16.90719015253845 16.654868666647474 16.430430192356173 16.24254836959981 16.09870689542473 16.005419105075294 15.968948771118042 15.995503643475772 16.08916672797234 16.24757349499146 16.458064469040448 16.69785623387443 16.939349303530125 17.157882867957174 17.33758245140272 17.472997346434845 17.567671813226617 17.631901480202885 17.679994943738674 17.725716953570156 17.77628939616106 17.828676493003645 17.872099258696203 17.89619608767485 17.899128085010297 17.88953027943839 17.881067874614857 17.883917145889782 17.899030384968132 17.918082359145906 17.927976603842804 17.91704097776326 17.88063747103151 17.824644461698437 17.76501600405243 17.721835982801014 17.7089119581157 17.724146975421327 17.74765126401339 17.75064091663065 17.710726486905422 17.624448306000296 17.510010666733137 17.400079503411593 17.33037227243174 17.33029188431899 17.41761850257195 17.594921654075034 17.845383989009694 18.129988999700668 18.391593356984256 18.5695623320872 18.62171268394391 18.54337703663919 18.372140552336756 18.173323443757727 18.012303538002595 17.928026638542036 17.921347256974673 17.9624428764736 18.01038887443558 18.03277316766874 18.01619279335739 17.965696078506674 17.89709148714532 17.82766074678515 17.769105511709327 17.724202472762176 17.687333527564878 17.64842912160996 17.5988061614102 17.53605774368165 17.465228469493347 17.39600631193894 17.338824868185355 17.303237932395813 17.29875910586553 17.334914900070892 17.41767073980219 17.543532175062225 17.696148667035988 17.849510580093543 17.97742783308228 18.06452765158069 18.112668204075234 18.138941726891556 18.165661267956207 18.206904561221844 18.25877667259083 18.299875266750014 18.303354535242146 18.254292295417695 18.161174309153925 18.053237526612108 17.965164676586294 17.919559462319565 17.91812761069041 17.944605900719328 17.9739908493148 17.98081575508559 17.943758480737593 17.848545575026947 17.691492001894012 17.483208760723695 17.249783537957263 17.029092788417884 16.86211346792204 16.781496688289913 16.801226898876294 16.911586843361867 17.082432882963396 17.274467390452088 17.45364744378634 17.60115216952156 17.71363623796664 17.79523521293895 17.84866934287923 17.872529962796584 17.86575293594419 17.83405911125822 17.792030607897058 17.758669249834583 17.749522544729206 17.770486204061896 17.816423269268146 17.874291499126976 17.92838402869293 17.965405933339344 17.978306217084857 17.968468045514392 17.945506210151116 17.923614003448115 17.914697406733936 17.92129726442785 17.933964224576517 17.935757618120718 17.9116685924739 17.856954238961684 17.778848447990825 17.69057020374032 17.601868265346884 17.512944204323237 17.41639378080542 17.305856181052302 17.184774555796622 17.068608878419628 16.979160138422547 16.935572400063286 16.948034832473688 17.016737475517726 17.13423222086592 17.28804207135006 17.46234426393272 17.63971774728214 17.803743806400476 17.94136157098234 18.043027461783613 18.10039922751791 18.1039919055225 18.044091198694552 17.915820337017145 17.725432578803613 17.493035663347143 17.248953892825586 17.02543632226884 16.848781649877658 16.736186813723606 16.69715702557218 16.883054409665597 17.00637270295523 17.173627713795184 17.3530151911329 17.502372934618904 17.58389805181503 17.58062882225495 17.50467848230653 17.392002592119997 17.28685246711419 17.224602571088464 17.22072443625949 17.268320384062733 17.34211045549099 17.406283976316228 17.42536636678248 17.37720861625266 17.264386484498466 17.117931025492098 16.989058101418177 16.930500409575995 16.975373131469247 17.12358457843587 17.34186390237473 17.576194161254506 17.769815009159867 17.879088763616213 17.882447295131243 17.78135551763399 17.59489353313091 17.35107449707305 17.078509101783222 16.801182807877925 16.537044945206407 16.299046582240333 16.096715141690414 15.93746995169974 15.828036151133595 15.775928292976788 15.789636757708653 15.876038950552887 16.03561967428272 16.258565698925 16.52499020291268 16.809742609334407 17.08882022282029 17.343594947809876 17.561624385014888 17.73589153143565 17.86456422712263 17.95087094667225 18.00107535630933 18.02051397356882 18.01111825001159 17.97391300389934 17.915332722946154 17.85140299801648 17.8044061524134 17.792710877858823 17.82046664803275 17.874356477045747 17.929426485672103 17.960050338875707 17.950092346524144 17.898557263998537 17.820012627032632 17.740134830464182 17.686679260349834 17.677582738618266 17.71105160391459 17.763985132299435 17.801576297983694 17.79385309072862 17.730012573480117 17.622966012712435 17.503169516284157 17.40709131892988 17.366946710742766 17.40448658496649 17.526975301126104 17.72288429027517 17.9587331657549 18.182306081925656 18.336206058300323 18.37917099790283 18.30545998311964 18.150665134786166 17.97818603564743 17.8516379232934 17.807459261749884 17.842152833248498 17.919473751186864 17.991190222763187 18.01891327346977 17.986797500736763 17.902132188330828 17.787252891402236 17.668526541773577 17.566945360327647 17.49262469253282 17.44396085317947 17.411192647116707 17.38275752045152 17.35136922827994 17.31670858562142 17.28397681515339 17.26071223891542 17.25500513970463 17.275535843080842 17.330796673315444 17.42528892618228 17.55417608375107 17.700726008975312 17.8398337734427 17.946968113313066 18.008263306509292 18.026486746959147 18.019406549693596 18.010546839509836 18.01622702490861 18.035712511125496 18.05109874848881 18.038614164101837 17.985196942171243 17.89923382534399 17.80743626678282 17.73973264833701 17.712819874679067 17.72307377060144 17.751281233408655 17.773101668647232 17.7675030012972 17.720215571761752 17.62437257435817 17.481438589886707 17.303046576774626 17.11188132167792 16.93934874316628 16.819212875879774 16.778414027417636 16.82798527035112 16.95792641817108 17.13939548688907 17.33473892162376 17.511221696160124 17.65099877328612 17.75162046205757 17.81805380438649 17.853481790822247 17.85627014860292 17.824458889259027 17.762711051213888 17.685340117153697 17.61301493207667 17.56568214782563 17.55610372584107 17.58681621611604 17.65074150097888 17.734268145986256 17.821581017743277 17.89934411262806 17.960680547926305 18.006793072725227 18.044582536657263 18.080424883309277 18.11340232530998 18.133010935821005 18.124062194658784 18.076137645409574 17.990982710877283 17.882242248820933 17.767311890323683 17.656821272393298 17.549251070005898 17.434780940290395 17.305791748165877 17.1664686641235 17.034749768140262 16.93575467931679 16.8917368898771 16.914829598416652 17.00528710863803 17.15354574295631 17.34304932619886 17.55254306967231 17.758549774492096 17.93867893771145 18.074852205946492 18.15478025795785 18.171310530153256 18.12129985248268 18.006123627895125 17.83406747399296 17.622381613601767 17.396159319086795 17.183225230847345 17.00736974520807 16.883950315518398 16.820345485396544 16.819687782142527 17.132442509767003 17.252225781993847 17.397090733211027