# vtk DataFile Version 2.0
Really cool data
ASCII
DATASET STRUCTURED_POINTS
DIMENSIONS 200 200 1
ORIGIN 0 0 0
SPACING 1 1 1
POINT_DATA 40000
SCALARS temperature double 1
LOOKUP_TABLE default
19.133515394537724 18.09418553559025 17.097178705719948 16.61374395958458 16.432738845962078 16.03110188822025 15.261913929757641 14.515388128222673 14.387804478167045 14.939277725015844 15.53591188250617 15.902534005872866 16.36945728502147 17.309955472139 18.171888515789835 18.146226395086096 17.36405882537472 16.527477145518585 16.2203203342179 16.358852124708015 16.329508695384146 15.962923296948551 15.755993533971429 15.992579185410216 16.520428727024772 17.21259562593025 17.689937936165514 17.425574985965355 16.62894354446022 16.253915666036008 16.787768571240253 17.634865654287356 17.83491578320927 17.2002779452124 16.359936748006284 15.8098383273165 15.46864390813868 15.289208045492876 15.348807442403194 15.84878437879962 16.862772719759562 17.984079417532687 18.75842037580163 19.14985877946145 19.302218692927838 19.03508749482467 18.23449277051568 17.242493087439268 16.35521923926758 15.566723297033283 14.889167163845753 14.474835739320172 14.485752575088068 15.042023207724018 15.86240716195385 16.43952235049701 16.634871927630222 16.65171155478202 16.59442595176937 16.450235826659483 16.371343705821797 16.429677944287157 16.440227840616487 16.177934473873304 15.849947486610839 15.82624136984632 16.255598483031555 16.999242639112666 17.486993359866673 17.513042815238467 17.23959832968108 16.987825125940798 16.896744761730766 17.162011145264675 17.728005126057997 18.08662196421311 18.040615877049806 17.76656107980485 17.570231549534213 17.625854377450295 18.060681762459787 18.877155547036885 19.55388709255338 19.873713135942523 20.06066090005472 20.214655963142697 20.23638313619972 20.17855266196458 20.20384777709653 20.312323775096896 20.21349148036773 19.907809939297554 19.402894252054796 18.586571909747473 17.458929765563255 16.46199743479404 16.178156924103696 16.422311439979918 16.704841372841194 17.140493916841535 17.838194791050793 18.65678077407474 19.350198197610386 19.481397836056658 19.166951916965896 18.982131365190433 19.190324318628488 19.49959395338731 19.285323085332532 18.310536776270688 17.062655769298463 16.234707272108665 16.104996303313566 16.296491314000523 16.305215778172904 16.203309619832137 16.25446469982993 16.448116126093385 16.76440192742496 17.22635487304023 17.842228389011613 18.456368301788544 19.067404906688054 19.646985144068154 19.705915980243507 19.075910734420248 18.272063072362613 17.688855504496146 17.498673402691615 17.43928139843235 17.32511577573843 17.53002678105759 18.108684822727515 18.657040993476905 18.716202263265348 18.273322808692306 17.668788867756167 17.08669967422117 16.45982413730729 16.108184343057236 16.192426603582938 16.361663388366804 16.47912457522876 16.449027778386974 16.317082758065133 16.146733710521445 16.112988711478597 16.257554615372257 16.797146617744623 17.88112548644072 19.13687208837503 19.81181706023772 19.717291636757086 19.296563650798003 18.805135604799215 18.360964515004778 17.849148622261435 17.048339778713427 16.120481012703117 15.471749507374758 15.390927459997217 15.81561375849607 16.312633852364186 16.646587939028237 16.93445767488646 17.34749328192401 17.77997294334358 18.145368056387387 18.248378387081573 17.85545896120323 17.120127961440026 16.454841149212612 16.299322114823095 16.82779704605137 17.671288139161643 18.32400516891799 18.508585776124896 18.138555219118018 17.60226146275371 17.275847591046702 17.12735270648747 16.780348102526695 16.148159048394817 15.56287645343581 15.203648258754257 15.041200438244319 15.049101245550434 15.34077167658702 15.957868039067606 16.804816379811648 17.7763743930206 18.68730717792878 19.394907360047156 19.905000613292817 20.097009702796026 20.05960328207333 20.132001861019422 20.15883802788006 20.010176378791424 19.73403365906647 18.678087935615693 17.740580880783522 16.783203853859224 16.211401169992527 16.010086683165856 15.650818840133972 14.92644771522063 14.34609503608055 14.418595484947343 15.008806630772437 15.48063016177394 15.741785628329053 16.282701635380246 17.438751557116742 18.53934604272385 18.640507455071265 17.925913327961798 17.204840320366625 17.05840198495512 17.314111212122846 17.272021580133917 16.884545811513178 16.72331621608112 17.01107252432532 17.539041868231994 18.178845427415798 18.476373373695942 17.920911058505823 16.90197847418049 16.500124015082854 17.065342123298315 17.833114210630235 17.878509427791762 17.08775790832056 16.12053864528416 15.581563135204334 15.44788950438328 15.585421681120634 15.881664323173686 16.420070086018523 17.32431042539265 18.32599341460185 19.06177834744772 19.41596080845257 19.453850338434574 19.061690930975868 18.14418382404422 16.96336595665151 15.884309795314927 15.026282871850237 14.396868655437572 14.126384840414476 14.396849091283533 15.19917061053613 16.141265534082446 16.874945689650364 17.42080036844747 17.785737715902933 17.784953158132716 17.342955413100952 16.844442517835986 16.592858882199593 16.47354009075078 16.274728945266798 16.136406266636083 16.273766109605305 16.622386574454218 16.993851859556926 17.18569583153637 17.271453370445414 17.244726802691893 17.083435003640396 16.821521785186288 16.902601248406505 17.38322542280594 17.715937306339725 17.75114604991667 17.64523140416371 17.48808183324573 17.38747074394825 17.758474116400823 18.78122145330186 19.861698126342862 20.568951703896392 20.83736088291827 20.650241856695185 20.103246085480322 19.57046084782768 19.397144512128374 19.63670877203888 19.896086074618648 19.860530795229437 19.298579059849786 18.250329342744656 17.03975910804432 16.142787326391595 16.00735331311201 16.31526769896436 16.53208774999161 16.769525399016246 17.253611014029072 17.99766798172027 18.748896186745505 18.97419708110353 18.70184090842619 18.4763126581886 18.54247142136899 18.688160805263472 18.466323059264138 17.613919270513918 16.48212858126244 15.757379541998713 15.867333243375215 16.4521921956108 16.804358498138935 16.8902564973808 16.984112563751435 17.01963723718017 17.037302757095514 17.282643148382196 17.839342273346116 18.470397879597222 19.06408961016885 19.58211519666576 19.55826213504772 18.822274744650972 17.981570250548458 17.478416079681683 17.337998581731885 17.277259708844582 17.258081602951446 17.69016177738951 18.547378965585526 19.30660775899846 19.31826986895886 18.524516802199194 17.489467114237993 16.62457932688547 15.967701073530787 15.7168646376791 15.813912852708993 15.891372328755047 15.929182518377521 15.976019811076112 16.029633335633314 16.051702966132147 16.197313764338887 16.367896570792613 16.655852867098886 17.425050127384687 18.48896916655149 19.100811644445233 18.99926791306495 18.601272626175653 18.23214625975207 18.096434199784593 17.930133359180747 17.312517957512195 16.42554218485336 15.781613161402339 15.676766471020429 15.978962604480571 16.233841630531042 16.337484414204795 16.510960371465874 16.889303390527378 17.327236137570992 17.785327895073753 18.113861155556148 17.986165094577746 17.37590017131689 16.476727370722028 15.832273586731127 15.976728755055802 16.633742701089975 17.22591064764758 17.501089079662997 17.403469127709588 17.197875979737432 17.078185659993025 16.999364340713967 16.621932281962415 15.975469831551708 15.53947919703934 15.384262431207095 15.331444905876992 15.350873307865093 15.641569168464464 16.226020735295066 16.84749804444678 17.478669029953313 18.172033057193275 18.870055870009168 19.438767163068654 19.598683699199835 19.400591417460767 19.299509118110798 19.292112233833997 19.265405215299115 19.158118140417713 17.991284819600438 17.404398667943745 16.735108283502676 16.328711929849028 16.32283132012734 16.125500152586817 15.41068078899703 14.75192825674125 14.6675166751886 15.08319386747231 15.475932414657564 15.761472947151674 16.38737788397903 17.62480515497979 18.85761288740552 19.157988105637365 18.64163252024138 17.97912215765798 17.702708580778502 17.776184965265557 17.66110677682844 17.459505909134116 17.60579992546135 18.085801775992145 18.613265123464895 19.099107956687405 19.17057651810462 18.44750814421448 17.407772570919338 17.027649143163504 17.475530358194085 18.008243518311794 17.936817440611854 17.2673297181427 16.517968352577537 16.130873414529002 16.078255016595673 16.287912198320335 16.62187869718433 17.057638997899016 17.701378480071966 18.39789695285381 18.938547478674543 19.2523937293367 19.286835725840444 18.84335935737687 17.87790184985527 16.69592943367401 15.724517216043921 15.05798659270727 14.599017496920135 14.490262598710705 14.995090081674617 15.99360768142086 17.003536603533373 17.83684201408546 18.62122804685843 19.18689886626243 19.20152020360583 18.54509448120359 17.641925501904975 16.996065753808555 16.718956657908016 16.626865080643356 16.666199608105305 16.8627345423919 17.048366630951744 17.10296634063147 17.208963058571324 17.56538444259405 17.874333147570084 17.747922665218134 17.147207385896373 16.69885961914734 16.688942125057377 16.832103448276563 17.05215001699141 17.299497954856957 17.379343315711985 17.353525242551548 17.77479692071114 18.87898502899858 20.105157969654478 20.965557008139882 21.1801981991705 20.605190986529852 19.531638728562402 18.609946862613892 18.284550160968404 18.635866757232883 19.168726366898635 19.315180323581863 18.773379991001228 17.742151114270584 16.713958562676638 16.15446359880333 16.357460841976454 16.88563903053007 17.149274340456245 17.20882959830715 17.41947812861104 17.92009326103866 18.446500255343476 18.45334427754226 17.996945871540344 17.659510884180982 17.63244471706981 17.693176912317558 17.589596596151658 17.162513113339205 16.540562813360843 16.151356215722924 16.437376963039384 17.18665706613253 17.681399723356584 17.800377981810644 17.829493597099336 17.73339353519484 17.603812631900134 17.788252836496756 18.39767311546117 19.1414992821208 19.797892733894024 20.241107561085016 20.046960675634622 19.104572675620872 18.107301872296873 17.602692749322433 17.529043113895817 17.54748197545834 17.650419145317645 18.185329046154585 19.076237897569982 19.798923099996593 19.68683450063565 18.70037005953122 17.50375859996153 16.58165384896386 15.974084623257724 15.747786919512626 15.803731637468427 15.840776302753177 15.912146048229689 16.11347278258436 16.30146959332022 16.34731975291648 16.512252401751233 16.698899050726627 16.78227711224748 17.177983912247416 17.900562453327282 18.29734781804661 18.15419963481941 17.967095112664833 18.056411418941927 18.47924159665025 18.77688347996405 18.42489847562056 17.60047839724085 16.8401305685471 16.452777069752685 16.313187307569354 16.125663575228355 15.940685266879939 16.00782507020865 16.369787782049045 16.769766799701674 17.18212219544394 17.621159619468468 17.84150226025688 17.602475958124245 16.797919466312603 15.9613479290969 15.8447741603229 16.246672468607915 16.553293354435418 16.678692212041952 16.756165449488623 16.878064691122493 16.940398871769517 16.88633037794788 16.518989332610452 15.954492948959764 15.738198369675663 15.889612021851034 16.091530680989635 16.195477194022814 16.41077216851504 16.82112067033591 17.177324961575557 17.565238123445766 18.179934401197315 18.888777464600974 19.328105724647035 19.162711280174687 18.579024249250693 18.207926389459658 18.142683488504908 18.18906029882503 18.22164123191302 16.786660579526718 16.731279350393983 16.605066873742615 16.646699157615515 17.05826860072482 17.200736221655095 16.63041054760089 15.843988527792582 15.408833659079194 15.51101005231516 15.816572848503819 16.13770101505021 16.722455350580695 17.849013624210023 19.144589273272402 19.730311846119264 19.461807567139026 18.720971450589023 18.047240451133074 17.727273150540103 17.558782490079704 17.7207657769131 18.2893051582154 18.913795284784953 19.321426066189453 19.57386115080114 19.457111026296584 18.699475706081103 17.742199215598088 17.348207109268948 17.58507047804325 17.874099792144886 17.78547648365596 17.37171439943916 16.92510253409289 16.64329332482387 16.523656284480086 16.607139788170254 16.811810060631316 17.064486133981855 17.429723785499515 17.803971098969015 18.17734766936287 18.58837063764615 18.81707682301743 18.48893242568066 17.655714013566687 16.746541565051484 16.181635667970266 15.853586148304611 15.509387420299952 15.382702447363567 15.895921669217907 16.907799888501692 17.915519548313128 18.78014009509173 19.598390159425357 20.115760747105362 20.083716928966872 19.414474113496695 18.372891753381342 17.485109948735758 17.114874309542312 17.12992962097042 17.265816657715956 17.399762233491696 17.359402916520978 17.121801858515937 17.169530299271273 17.79049192083652 18.438879634456075 18.413279496687192 17.606252181653346 16.670339099474706 16.058528863609833 15.905682243863428 16.246403903898436 16.76636216332055 17.074311084466434 17.276618632463823 17.92105332678292 19.11776292618358 20.32397711754345 21.13173189081904 21.237991823618184 20.42446852943975 19.078393668689046 17.968077580765577 17.52028184006607 17.809781971194525 18.29111901689829 18.380436308307576 17.959568610918293 17.310598626395045 16.775574841548472 16.64611297126864 17.10004032687585 17.765355526402 18.113950464484294 18.10450184739893 18.084608351367013 18.217966251819185 18.302794372204957 17.93714146115915 17.24742422043771 16.79148633208956 16.72773325746417 16.79597865615389 16.816682244406348 16.804858080686184 16.769205702216283 16.804629448548294 17.259913873179688 18.055588066783546 18.531371687577273 18.55351580045731 18.46433043156753 18.327472021665432 18.259288468043547 18.563074157155427 19.293962581320287 20.130928743942434 20.78062166946576 20.98012397036031 20.429147969288486 19.234027490207758 18.187877589608178 17.82685658002457 17.909493369739383 18.001186913850926 18.12693038299514 18.60163598092332 19.325754946429768 19.829936504051467 19.582262057592345 18.603017839215443 17.534072031151055 16.785878392016688 16.30156439578295 16.069997244901877 16.11627053239676 16.260852126896857 16.53833270847344 16.94562593763132 17.155324223765707 17.0380790297068 17.048383843962284 17.238812705809583 17.295703224763425 17.4336110068659 17.74943023185069 17.8177524715234 17.59016348635534 17.615668638189447 18.126210963135357 18.962777276421846 19.610562478795348 19.587929361567557 19.001256256596488 18.258892162550893 17.657241851906793 17.135921033337947 16.577122225532626 16.071531208301323 15.8680544288428 16.040460011984088 16.291763395740837 16.57511520703647 17.023575735224533 17.516928125461195 17.66440298451934 17.1560822121203 16.45899573117721 16.339615177736526 16.58448941183224 16.544171825533784 16.33981242533032 16.385994953563447 16.71964490157232 17.02499768960369 17.124991488196063 16.872787039983 16.440364852598933 16.338530008711157 16.57996190730576 16.86665606649385 16.97524652113721 17.03175688016194 17.17952841201353 17.34983184644299 17.75022927036097 18.494718484668343 19.202967378402757 19.31947743447474 18.63789676294121 17.58861434151271 16.932504836267153 16.74248118873461 16.714230143395433 16.74858510243324 15.363795659359475 15.735398847695087 16.239225203575682 16.922388520817943 17.863678918961693 18.39003699414455 18.037960250974283 17.20479064928439 16.51240153695679 16.391192839685534 16.629819138858505 16.898598239893268 17.25682275869169 18.098649079642378 19.37481475640267 20.255800122922754 20.267512302516387 19.462484515642096 18.37046474180363 17.61021131727587 17.36587680915683 17.855057138320774 18.79007630715951 19.49472319896822 19.739924054154702 19.798433287169225 19.627922572481847 18.96310036343146 18.06219113910877 17.508538542636153 17.434031289090804 17.463841292017914 17.34099569948954 17.113273647772758 16.88744422336808 16.655088856101884 16.469642049416922 16.428003717179397 16.46678082608874 16.505860399549256 16.584276232585516 16.674993847854893 16.982787408450612 17.59933614115335 18.10196227192179 18.00544410276122 17.494084015138124 17.084619798289204 17.05957306067543 17.01645756141697 16.611350354760432 16.24288477581021 16.508867069119134 17.342728579376463 18.30830658184671 19.198371373531142 19.895235592044124 20.13616968048575 19.93076631229347 19.345155485826748 18.46108628261338 17.64283331540667 17.3941061079669 17.64975743576616 17.961162022345718 18.05887478886016 17.77173225361009 17.183157737942665 16.998465562484757 17.64325383893566 18.484737421550605 18.622690902302576 17.91132511808967 16.91735367804062 16.035966747507036 15.670205980293138 15.965143219899383 16.45854728613173 16.735321058326722 17.010295116533747 17.78546913760698 19.020092764788156 20.18435672712327 20.952704743830346 21.05730351796614 20.22186341648941 18.81546731286534 17.615158215035418 17.040568075855848 17.172620351598653 17.478024524074623 17.513273278529578 17.391410022152858 17.361119241322722 17.446504292236046 17.658932507090608 18.072864527791307 18.53796459262527 18.819993054853317 18.82796310586338 18.737861103882313 18.59568770228466 18.285271491433292 17.663076372037843 16.942150209043582 16.529170402013175 16.51571413545838 16.5920649000969 16.51104793953131 16.492700024889274 16.703729096001343 17.05952118446379 17.738278783763008 18.595229304202174 18.98283848175687 18.867601848031036 18.682023390888588 18.55384516241126 18.576020003209177 18.940709141642994 19.66753497064076 20.484243813037395 21.039102562578524 20.8928054462585 19.93221075776707 18.59611622485845 17.781596418553253 17.847366188227614 18.257120015722382 18.44196380222017 18.51663195801918 18.839914047859402 19.301211404841336 19.528253753727228 19.23497100368314 18.46249278035622 17.66547955645002 17.08750832860001 16.617248633279985 16.307205430470955 16.35735026561051 16.692405310908303 17.26715842982207 17.895641649854614 18.10192524577809 17.817943220640295 17.65895754925308 17.887860742965174 18.11073010510305 18.1827722767353 18.11926061447342 17.785988378459976 17.39213162672223 17.452235732220966 18.030424249370085 18.87065518758677 19.605141991851507 19.89603883460102 19.736449991199493 19.31377593785242 18.855549963281785 18.34519444379197 17.701862469855055 16.940295821700623 16.362871819786783 16.218654878817585 16.27051677695602 16.441428223443364 16.85641067842264 17.441740620023232 17.77329708060938 17.509116372486105 17.0555065760673 17.074864928881414 17.30199482862825 17.03540804250612 16.475605216945844 16.248320253422403 16.50013731891402 16.970461531666995 17.346810258193006 17.349668761186443 17.129569702298937 17.09015653743125 17.264932952087168 17.51807440605329 17.63455255491693 17.563019043494766 17.453395054943854 17.487773000289927 17.964722067111673 18.797672101230873 19.38252682105034 19.11222332370423 17.986094987705602 16.604137089370138 15.735913387733444 15.429366306841336 15.307065291392057 15.233526007398316 14.495879272454978 14.985281382157172 15.91104818291895 17.151264894641354 18.524817441245826 19.3123059815954 19.137576363622117 18.34035251232795 17.52893694381092 17.255338503118843 17.388264026560016 17.512116493225644 17.588866393727752 18.125019202520413 19.31132931237489 20.40955833682722 20.73261928653324 20.04527186084332 18.763464723336025 17.678725533332646 17.289467103735227 17.841639820635372 18.869818500817576 19.56695877322094 19.74392068794338 19.804244959203427 19.810308208693584 19.438619925083138 18.670670645816276 17.90920656444777 17.445103487694603 17.158240710286023 16.914467223781823 16.71585528173068 16.548795669585857 16.320645622883152 16.17885214881658 16.19266347482469 16.18534911831085 16.028236637801992 15.7489587716789 15.508998694173883 15.759955099778182 16.56165771785129 17.291359723197054 17.45578380156291 17.33247098256723 17.425176872565213 17.8420160594501 17.967033821411746 17.447174172901043 16.829510933555028 16.824282667462732 17.440271522528835 18.284814497284398 19.05263602850219 19.414301319774996 19.233198755478938 18.828375917233124 18.444060389220525 17.996695732207918 17.52766396117149 17.51444059242446 18.033538228074335 18.598112994717233 18.82493960347759 18.44260630995024 17.564574179777974 17.00179773093478 17.358721807023088 18.148629173618705 18.44184357359657 18.050979859874747 17.38828005152429 16.63005748182116 16.195507838325707 16.323276760958695 16.59033659612091 16.649837428599707 16.732724104772135 17.323742949941725 18.41137731679373 19.54206009222521 20.38816579047062 20.613956388069198 19.893725578962098 18.5372624051081 17.282001060783287 16.627051396210174 16.719709222494718 17.094599865954496 17.371274397009163 17.65404140101706 18.06841040577519 18.474207206918415 18.74109768058052 18.864364867880035 18.889263001216747 18.968024508152386 19.038461488939255 19.053454067003745 18.8732314949317 18.412391891709657 17.755125390509733 17.214416691032255 17.016924764142043 17.153344862400246 17.231874530519462 16.885929405183344 16.527851341955355 16.632878337977832 17.090583538313684 17.906930301772377 18.758384899176438 19.01964122559368 18.837459933396403 18.685213332930335 18.632612431734376 18.648019632241162 18.822349890423936 19.29445871707487 19.961144548306383 20.401319604672047 19.987452856486268 18.779327514813318 17.51116629510932 17.113258213421478 17.689432281392193 18.435476725677685 18.680420690835405 18.657241304632237 18.808174890056794 19.00140891884236 18.987641079629903 18.778963453466766 18.3683132528876 17.841748183934115 17.2728627993085 16.667522079826515 16.24296264580971 16.28974556889116 16.75651112629756 17.55154299529818 18.362171414185912 18.636751011925995 18.321690752370515 18.081032831393923 18.341158858919147 18.74021912040725 18.852440502005848 18.54313928133637 17.88759480135025 17.320261301219325 17.270948041613998 17.614025683797816 18.13836121465196 18.71838325888483 19.193626105422712 19.48088709145297 19.56067506026625 19.504483119423366 19.275482702857722 18.775675988757353 17.971567052997585 17.253514497689554 17.017740450050614 17.05866268870421 17.193621107788758 17.476353086141202 17.878869316433597 18.095172063374665 17.89724768218183 17.639385050869546 17.803419234947082 18.08077440477511 17.785683337247267 17.025980857833265 16.42485318954428 16.30307850233017 16.685009998614877 17.239637322546436 17.48738038572691 17.49003830333278 17.541815708859563 17.73271257316401 18.09144842278725 18.389249416364205 18.335758181089187 18.0283308024337 17.87550916376197 18.258732910311593 18.963259216568915 19.325456653428827 18.810815000363814 17.535914673883518 16.07974026443711 15.115993956917405 14.767522281240714 14.649006774606333 14.469498041752091 14.624326835739502 14.900784819302316 15.813714996862986 17.228100276633118 18.742365149305353 19.60799581468771 19.55297913257555 18.83883359627009 17.947945077141753 17.488127870595374 17.49397985386973 17.532916388737554 17.43616260537404 17.682189367610793 18.615469186291467 19.724406059129954 20.31211581646044 19.916987549277437 18.721527279928374 17.484178368421393 16.92024969467306 17.320121527588505 18.257783724925527 19.002187991905632 19.335597390272913 19.58233397837667 19.817575780246894 19.741069064760985 19.161763175322395 18.259584577993174 17.415166154543922 16.8347479595413 16.52490855551189 16.3449607943221 16.14967389972268 15.928785205651032 15.943792383925773 16.13703231356237 16.158118685402265 15.851469592413281 15.26567436183579 14.761644685044873 14.96164688438984 15.845615172657855 16.709043553914455 17.135101400202565 17.34007448811471 17.696489786844516 18.278484242936653 18.487160847723395 17.989285780148517 17.364503492371075 17.31955778838108 17.80411495842145 18.344973170972118 18.62497841146977 18.377603863688506 17.75003864563327 17.268040817823696 17.264733733749207 17.496870255111464 17.61389445968688 17.880496539443133 18.456734259869833 19.009771419834482 19.272138247660568 18.924964764388584 18.00189414832541 17.216984241149227 17.270031550158805 17.940895431673177 18.39543315132818 18.361006290867017 18.064512137354953 17.509734258359998 17.03038007441658 16.963569433693376 17.056965367448917 17.000750914118747 16.85558083474249 17.063410129441493 17.804596449561124 18.79011004261078 19.689761927417265 20.05257972565195 19.500302509711123 18.25624418337188 17.01048484632526 16.403219834446364 16.65419054422268 17.327675344875676 17.950208534613324 18.434175477226557 18.820404826980493 19.086843334288954 19.196814082986858 19.065834328056457 18.734195562406143 18.581376875945594 18.645947281916413 18.809822207656367 18.80672711463341 18.465889982776087 17.923225066581672 17.546544940854922 17.496142404872874 17.766656595848577 17.896572074322062 17.42030739868658 16.852665040855392 16.847783946228887 17.265203060418276 18.02400952190203 18.763233725452814 18.970733180747782 18.874505312447376 18.812024392263844 18.735596187884077 18.520687783043964 18.276088768439273 18.376177391926767 18.889213658168504 19.311212329068788 18.8733248250327 17.724451366536655 16.752761325752434 16.790100502238282 17.679951061830963 18.503065451699555 18.636162796324367 18.45358314318902 18.466857412937365 18.48147334128321 18.325400317390226 18.237897141514015 18.135340800608613 17.73396541665864 17.068757323632056 16.35850437643843 15.885021822215704 15.909402999851046 16.394801501405937 17.310595329089512 18.302463140305893 18.731151243630055 18.448774554121226 18.140998870780024 18.359707269219715 18.814488719329603 18.984760308627756 18.66049651283481 17.962232387715613 17.349719916244172 17.16546121273846 17.20562158506692 17.353569740344938 17.671510033957706 18.161173645508885 18.71744642132212 19.18802211016409 19.44410457198243 19.423108491914117 19.1248992151666 18.51839738061229 18.001453257213953 18.014161781613318 18.31838630141395 18.493879948992646 18.488651240683538 18.436759718071524 18.318997396964928 18.10572807391003 18.057244184693882 18.393132481783784 18.755234291607252 18.585926606504067 17.855274475597984 17.01296364129413 16.47249447949693 16.535209244842278 16.96570431801362 17.234957792241094 17.378434207101943 17.592990460051908 17.95540926676927 18.49650030202979 18.938566014900292 18.899950621715078 18.494010157325608 18.239239859892024 18.474071238321883 18.9131412710176 19.002996942380257 18.436558719648723 17.382566882474663 16.198746999959987 15.341914140000595 15.057556003078105 15.02740103680345 14.799018256806013 15.475193865497037 15.39015623676608 15.971444700345256 17.147754744223196 18.445047976731686 19.20886590122502 19.247683766199366 18.67349319116956 17.768422446574174 17.162820368573467 17.1470845560124 17.315255715390993 17.242884219664386 17.206447802492733 17.64977700239077 18.41113985957031 18.995749461573023 18.86178507316883 17.925042695342142 16.698972597825538 15.983470336466109 16.169087958280087 17.018026118287136 17.92319503779522 18.525214041473046 18.941476834169993 19.269043874014336 19.343861941765056 18.983135721242583 18.17967486102452 17.246465482491 16.609305052232042 16.38224503912682 16.233810591694596 15.913870998842404 15.624115757455474 15.713400224014912 15.951988041709193 15.907729459964782 15.517498562719874 14.907713357292444 14.47360232199917 14.761324452624217 15.626808382118051 16.475361312529333 17.085650828031024 17.509640179324705 17.916531977368063 18.48266414044319 18.791619177373168 18.48498217491921 18.025788700403265 18.074756185253108 18.470435093122955 18.592439917907708 18.180267978369564 17.271632380065043 16.339681541655306 15.940683292795377 16.375779231478155 17.290550850140278 18.033923364230848 18.57423899076924 18.965292788700463 19.10572320603172 19.081147717015565 18.727563752044304 17.973763308086276 17.297137179630912 17.331184578690333 18.0268525071649 18.652251417720162 18.86846056254063 18.739253631043482 18.204080178517383 17.54437327301493 17.243110743549025 17.272762056641064 17.29411986956382 17.099661460109328 17.03615585158126 17.470569961007833 18.273936005825398 19.159694745848462 19.665886991110007 19.346550890968103 18.247998644863547 17.014388853408605 16.455642175474697 16.842883708602102 17.72411071824586 18.503146879490757 18.922090710825078 18.993072563999075 18.88756414831903 18.7801828620841 18.562977019471237 18.124035272058485 17.817893109499295 17.77907322089092 17.98105308266689 18.195185061033772 18.148430419232156 17.805128676778384 17.428056244330136 17.277488348928436 17.565806041406965 17.84123601002121 17.527064892026047 17.084675904937487 17.13494556949443 17.458454200722855 18.003819895451397 18.593806428850016 18.883735876715214 18.969052308883022 18.89523169150677 18.575089291142866 17.974610426180906 17.334346092767987 17.198402603575644 17.68964988727113 18.235598245744132 18.02545425639059 17.177790703122902 16.571715823237252 16.88483234495132 17.801339746624077 18.455434461001744 18.37474960888712 18.030852712470445 17.966791963085264 17.92426275055871 17.729386583592905 17.69127401516426 17.676260293326457 17.232181643418077 16.485408807245218 15.81020961276575 15.410633797649345 15.468131835972066 15.972870553491736 16.960618232084048 18.0772002579367 18.600931341943646 18.266161164902428 17.830448330313843 17.96586861827465 18.413282841805923 18.62620590438579 18.416929657964303 17.886717239621493 17.376679945162426 17.149060987390058 17.03776614024705 16.975036891442212 17.098825501226372 17.502540390384667 18.071735440142234 18.622576822989387 18.918024853839167 18.92694619887619 18.810729271365254 18.489819749465923 18.2860699459882 18.668917443117053 19.359153960002757 19.62889906128547 19.26356684723615 18.622594392083204 18.04307000347492 17.756422477238015 17.948880943141532 18.518332092252162 18.973447646200885 18.93547193077572 18.364469870121816 17.53518003081119 16.807238807539097 16.567359713027095 16.738294541072364 16.943955707842754 17.219169135482627 17.599339057840766 18.068104517379513 18.584354768111282 18.910728165018583 18.806901046142734 18.475861875595164 18.33349685038151 18.478362385385022 18.57531784000419 18.341313299684803 17.83782676780071 17.28123210422758 16.68469573368064 16.165999596758294 16.03194117175818 16.097551943719587 15.85339342