# vtk DataFile Version 2.0
Really cool data
ASCII
DATASET STRUCTURED_POINTS
DIMENSIONS 200 200 1
ORIGIN 0 0 0
SPACING 1 1 1
POINT_DATA 40000
SCALARS temperature double 1
LOOKUP_TABLE default
18.341123456408862 18.066637393597407 17.75641030540303 17.420295858184176 17.068568682757963 16.71773673125106 16.39673058522842 16.145858422602487 16.006000378782087 16.00350017976544 16.139146210015042 16.38552657230675 16.69166158744867 16.992736873759835 17.22441217519343 17.340222777213736 17.32638007741419 17.20629161175255 17.031490117138567 16.863346551939703 16.754181530572968 16.73440938272106 16.807592645330118 16.952408416055963 17.130335454066604 17.297866824362274 17.420342130070992 17.48208871778501 17.48754513638543 17.45246032427516 17.39095174542959 17.3074542940537 17.198771314053406 17.06360149276394 16.911945229370776 16.76810667831347 16.665848513778695 16.638128750187235 16.70531222889692 16.86597310810322 17.093974813370778 17.343674038318028 17.56180774353408 17.701717025048854 17.734963178358687 17.65700855766308 17.48605350652399 17.256502203909683 17.010334909588813 16.789590566444144 16.63073035512803 16.559250503205885 16.583649578648714 16.691197990450668 16.849725562813134 17.01701080921839 17.154349786538166 17.238037731284308 17.26397755699496 17.244681419720436 17.201501339491585 17.156367575867655 17.12652260207978 17.123265661061488 17.152878402530423 17.216778692492475 17.309734568390294 17.41813081388637 17.521586379847996 17.599089801739257 17.63709503546564 17.635048915735872 17.60520805313724 17.567154621548745 17.540557503332163 17.540316332117204 17.575866420749158 17.65294750341795 17.774464276350006 17.938625132774987 18.135834194857047 18.347761903819745 18.550845032986366 18.72320757135629 18.851370266106127 18.932987574382512 18.973995537611568 18.981626029259445 18.957324341393026 18.894223901335298 18.781494920715932 18.613558045806453 18.398757315817257 18.16207486574723 17.939783342113675 17.76846608481519 17.673943467365266 17.66528724908228 17.735378240014413 17.865442984838626 18.030187622479513 18.202358501306605 18.357171544209095 18.475944418585136 18.546785752330447 18.561799113381394 18.51414942027483 18.399565083913476 18.222562431921677 18.001692604193558 17.76725332943329 17.55105439181795 17.375236934792195 17.248414977115957 17.171231730499333 17.14572669017408 17.180519498207747 17.287883425408555 17.474790295480194 17.73328664536825 18.03530097366971 18.335036587282154 18.579653589222215 18.725651485305224 18.754561319512003 18.679920819558216 18.540980651647196 18.386131128246042 18.254990961441248 18.1675183700617 18.122555750453355 18.102776899885235 18.082087375483912 18.03359819055812 17.93744999707463 17.786929313525214 17.590668793978967 17.369912489075045 17.15192652616005 16.96204028371739 16.817229603482534 16.723852597920825 16.68071357796895 16.6859054650768 16.743196749313014 16.86321007967144 17.057332819303156 17.326977485418027 17.654483327144323 18.00189348290265 18.319610073262165 18.56091570435897 18.694649023797368 18.71000108118873 18.613383610002355 18.422473705820096 18.162439277903438 17.86486120821787 17.56599619488826 17.301561991735923 17.099208168959862 16.97296224108064 16.922991131375245 16.939923004206666 17.009768960209808 17.116170557603997 17.2402602864148 17.36115810473218 17.459542904186456 17.52355865787887 17.553303814358767 17.559893044152435 17.558270456228623 17.55756131829773 17.5550432582582 17.537509658099818 17.48859271189946 17.396914506077913 17.260589570744756 17.08732433030773 16.89241953580712 16.696956522661214 16.526246381554497 16.40715104594767 16.36378282051419 16.412983560780606 16.561406485850284 16.804555678154074 17.126741205531452 17.50130833776384 17.892184632184314 18.258667535383676 18.563885543568887 18.784092268228004 18.913646074581884 18.962022438432392 18.944340570716186 18.87165588871516 18.747244143357687 18.57007915999759 17.942450514236974 17.712727564441558 17.46725414519533 17.20888389030729 16.9394440868317 16.66679802052504 16.412543771274805 16.212447906087316 16.10657032172917 16.12405716141368 16.27092012786798 16.525557752943325 16.84167756533608 17.15704208515085 17.407695918535154 17.545987895064965 17.556296892290455 17.460376989744027 17.308704556665838 17.162032058454475 17.071814445940994 17.066537754142896 17.146482233197613 17.28640287047748 17.444782623296092 17.57766609893556 17.65322106923317 17.66121056062198 17.612303425964814 17.52725850711754 17.422887629636122 17.30436921094371 17.168621182973787 17.01490247932766 16.854097080897002 16.7104984737227 16.61577231373472 16.59878175170686 16.675470827638424 16.84187726065434 17.072296257584746 17.323512101245807 17.544311175734368 17.687710504036474 17.722441744520808 17.64043061808606 17.45812238942604 17.211611788729005 16.948007271042275 16.716317913336283 16.559391450405197 16.506278372645696 16.56497066334963 16.718310879520306 16.927022835413453 17.140815698984376 17.31360886416068 17.416423613537884 17.44309654582067 17.407819179988024 17.33690870741736 17.25890704932009 17.196959794475326 17.165572617256206 17.171057381304433 17.21307238672535 17.28514165995171 17.374358357769275 17.462367983386564 17.5294007824884 17.560807808236643 17.553107503698385 17.516002024598418 17.468952204264728 17.43439470930174 17.431756822634235 17.47514727663919 17.574005282994577 17.733352641226837 17.951099282509585 18.213479305057653 18.492894628216007 18.752128295424278 18.954909939501448 19.07815610879078 19.119322087054705 19.09446883742863 19.02766605666764 18.93751636590255 18.82870602082336 18.69365605203449 18.522974789298843 18.31782858478748 18.096381718190813 17.89043160266635 17.734382061046727 17.65294246429439 17.653837366275788 17.727716324514486 17.8529200440024 18.00153366009566 18.145132102938426 18.260180341227173 18.33204684514302 18.355309103250157 18.32985990828836 18.25641133140225 18.13637211852453 17.976873563530535 17.79564768485077 17.619251471460373 17.473817533612362 17.374771447915123 17.323585073533607 17.313950000116314 17.342090796831187 17.413053279105974 17.538390499743464 17.726768272564545 17.972991063151234 18.25146215336334 18.518248615084737 18.7226495812393 18.824783424961915 18.81157288135269 18.702634197305457 18.542188910368317 18.38112321891751 18.258707313244543 18.191969543936096 18.1744871489251 18.18157052076236 18.17864656454425 18.131498168448623 18.017013113429147 17.831281140107407 17.591434717380793 17.330117544191168 17.084962014173502 16.887373063108676 16.75473238617245 16.68869320928489 16.67998120923334 16.717300892546657 16.79562687833457 16.918963626318103 17.09544493780358 17.32730434966088 17.601889620593848 17.88981559933206 18.152184219331986 18.353006748470055 18.469536609887818 18.49505370001036 18.434599699138214 18.299156974303873 18.103374738695265 17.86703111598597 17.616138267167784 17.380020404107583 17.1849256947417 17.04823617495065 16.976700110097383 16.968343455756653 17.014909506345177 17.102545590091285 17.21164859680099 17.318725042831264 17.40187493761051 17.448206272935767 17.458820856308314 17.44727509029307 17.431137127839598 17.421252834157787 17.415534153600554 17.40103831807968 17.36205986077915 17.288212018783724 17.178014021453833 17.038089725341997 16.881060324197037 16.724351473228896 16.589359412456524 16.499206141502682 16.47479923156469 16.530904871005006 16.673879537215864 16.900830982633973 17.198787738994422 17.543509226494358 17.899778635237702 18.225894524005216 18.483067417993478 18.64645191124643 18.711776892614555 18.69307048487148 18.61260154775776 18.489574143642617 18.334515798708097 18.151258765436953 17.524915517785566 17.367005482788556 17.214565749265827 17.060614986464085 16.895638637847032 16.716497932782545 16.536116613532986 16.385624454686646 16.305353818183445 16.329222235376157 16.470874819892476 16.716968961710204 17.028051475033674 17.345944685687822 17.607461178186355 17.76284264325008 17.792834174447822 17.71590616080059 17.581071349991753 17.44953936627248 17.37372188792734 17.38162145665456 17.47063831558813 17.611078581798413 17.75747066246951 17.864306797210762 17.901246644708763 17.8618455205589 17.761453715246326 17.625216171654287 17.473549434747014 17.31452710442121 17.14737654705875 16.97282579795911 16.801713705260962 16.656084963949183 16.563127206711275 16.5461852552782 16.616911224630595 16.770534452364235 16.984770191926103 17.222518624333674 17.438333039682053 17.58795196636734 17.638987124542247 17.579646925507937 17.422231652691487 17.200043157234283 16.959457791942647 16.750475307459492 16.61765389063324 16.591284209537722 16.67923477910077 16.862624479139797 17.09930718080995 17.33580648037081 17.523362009107494 17.631448529369518 17.653903852119452 17.606592555845566 17.51879721062086 17.422289790986106 17.342292037218957 17.29320837115593 17.279359661783136 17.29832597953705 17.343701750691068 17.405629537526394 17.470166886535644 17.520243171391876 17.540116323799456 17.522135146000462 17.471773896283292 17.407246925518745 17.353728581566386 17.336018731497433 17.373833050740384 17.480585835682124 17.662888962972513 17.917595104214392 18.22666601343795 18.55436613171211 18.852024748859094 19.071411981445383 19.18153210180324 19.180069034440734 19.092569144810714 18.958938224802502 18.81429994027531 18.674928713929326 18.53691098711911 18.38709590888671 18.21837924219761 18.039520869081887 17.874156334663464 17.75077097661548 17.690395895924244 17.698823937364413 17.765948342433326 17.87020876427721 17.984736476634826 18.08345913218657 18.14676634022192 18.165415361281017 18.140350234611162 18.07810298029805 17.98546428029638 17.86838013441878 17.735938412844934 17.604511348093272 17.49598605317829 17.429360806162126 17.411768307603193 17.436494804610106 17.490176091418704 17.563960397726774 17.660453058729313 17.791570853690718 17.968524317534822 18.189587036099155 18.43242932701367 18.65603513682894 18.81318164214442 18.869011666515664 18.816796702700994 18.682054815392004 18.512195207810105 18.35738835857677 18.252874881422493 18.210000899941313 18.21646153793508 18.242149800970573 18.247889949383612 18.19642639093474 18.064342643331464 17.851004906190923 17.580108924321515 17.29252054117509 17.03337297878354 16.83867094455722 16.726251237904666 16.69398013120244 16.72542025087777 16.800271519959846 16.904541501785822 17.03512649046897 17.196302192321173 17.39051984038237 17.60973139363613 17.833259095739518 18.03383500754679 18.18779486594534 18.282558105361012 18.316853231173084 18.295066162069485 18.221581649893146 18.100054235884055 17.937318132719486 17.747268078360886 17.550465085576043 17.36947885343258 17.223554691838416 17.125784098906035 17.08267842285395 17.093835235816858 17.150537709931047 17.23495814232568 17.322762758682792 17.389995719438158 17.421732624982084 17.41772189422551 17.39094864519709 17.359040078011443 17.333492815981824 17.313731566560037 17.289524488343663 17.248876711319806 17.18502281301039 17.098464363205625 16.995119924837354 16.8842864357759 16.778367763556748 16.693055725708675 16.645747844721075 16.652093927870855 16.722741451408854 16.861896693564766 17.066986138509584 17.327501484984392 17.622652085941173 17.920265285006437 18.180496185149828 18.365558852517477 18.45200045537021 18.4386922404979 18.34519309648267 18.20121967007996 18.03397589992173 17.860866100393988 17.690033357114864 17.144733824914823 17.07294177279994 17.027417073209147 16.99008003050033 16.93848811668031 16.857079907621376 16.749297856026804 16.641638979697113 16.575418827417458 16.590443765674703 16.70923038470537 16.927955223916328 17.2153344813886 17.51858394640871 17.776256792659176 17.936638819838304 17.97610093313579 17.908770492434616 17.78169150694573 17.65707725206384 17.5896490770923 17.608365349379337 17.708655723580495 17.85655858628967 18.002162958361193 18.09726869600404 18.111159127686438 18.038747098466498 17.897743090541677 17.716461106873933 17.519416386998458 17.31940827821959 17.1199096638498 16.923905695192328 16.74141183450124 16.59049276398604 16.49229664098453 16.464167211707288 16.514363135896957 16.63935006275751 16.82298655412871 17.037240827982007 17.24523998097616 17.407715921282744 17.492395863426477 17.483395076197134 17.386453128395996 17.227649794581087 17.04686517856439 16.88922333355585 16.79640906300433 16.797692573296555 16.901276524027583 17.089510856192565 17.322230623735692 17.54872801436458 17.723638928237094 17.81988189239517 17.83395624453481 17.78294026451087 17.695663128573386 17.60193075339354 17.523787950035395 17.471748780977233 17.446591918974924 17.444407948483473 17.46086407429142 17.491621843499097 17.529273385663412 17.560700070833335 17.569218260718383 17.542106384211536 17.47902192635544 17.395274800767773 17.31764777032706 17.275941689912262 17.295620920013192 17.394287123000545 17.580232299220338 17.849529656263194 18.180967652246967 18.533022014061142 18.84889319767927 19.071673034434994 19.1644400203145 19.125054807560666 18.986664145316634 18.80229675459033 18.62124922777114 18.47011797558588 18.348380349710716 18.239102019779008 18.1262671461924 18.007567295500568 17.89614028958275 17.812473313999995 17.773060889773102 17.782585724607447 17.83243812460774 17.90411113594011 17.974635528540233 18.022449736821056 18.032988111808393 18.002342671250272 17.936687943901678 17.847351043297998 17.745235414760653 17.63928551894092 17.53965809379318 17.460943273122698 17.420035351260672 17.428401867865595 17.484606978455194 17.57395761289556 17.67687981301653 17.78071366837739 17.886891486322757 18.00865347432174 18.16040201437586 18.344442658901755 18.54242648962778 18.7171704022483 18.82587262813673 18.83932950798608 18.757055303704227 18.609256648290508 18.44410831120258 18.307824143295512 18.228459149794986 18.2097552651672 18.233771529126095 18.26764735571276 18.27197421841066 18.210982042391162 18.063849655170003 17.8333671732535 17.547321817805837 17.250999248115278 16.99357666307341 16.813707022885005 16.7294191559991 16.735615708747122 16.80981215655786 16.923641746771516 17.054853211638235 17.19380204360852 17.34126390971907 17.4998287921445 17.665417526685193 17.825071735381286 17.962249396993915 18.065172645667644 18.131619180936422 18.166611434596934 18.175361501669844 18.15762645898162 18.108062236529342 18.02185362126649 17.900752972187473 17.75511613770066 17.60147343241735 17.458447186035606 17.343558728691242 17.270849232246444 17.247831340173235 17.271824740077513 17.32822005848327 17.39348567243624 17.443062407846007 17.460802324861422 17.444859624656498 17.406269400556656 17.36064265430008 17.3182069676616 17.27895343961953 17.23574293957441 17.18180728129728 17.11614375252061 17.043442581780052 16.970688945260644 16.90479177193415 16.853022182884253 16.824291670310522 16.82857381043984 16.874342572754628 16.966278630297452 17.104831631623902 17.286562418555246 17.50291916970417 17.736987559521065 17.961109420807684 18.139657949858083 18.238639293971598 18.238505809240667 18.142801900173584 17.97678396884876 17.776574549383817 17.575744122836895 17.39708111732175 17.252129601641997 16.85730259035135 16.868789033145298 16.92416152795342 16.995416687634783 17.04797124116959 17.05428513146536 17.008533402741296 16.932607534134615 16.86861016837142 16.861791113267778 16.942958573396073 17.11742139605821 17.36229808609894 17.631265001862047 17.866239911366463 18.01503481272755 18.05032702563601 17.98164861263615 17.853372546489975 17.72828384093333 17.6637177765176 17.690608394983 17.803743661025194 17.965978724573233 18.123291441684962 18.22400772182657 18.23507510573856 18.149992436646198 17.98606177869317 17.77295888446009 17.538997177839555 17.302646707301715 17.07291265824178 16.85576887280222 16.66030149203005 16.500080000997347 16.390009680815613 16.34201509663154 16.3622892321213 16.450187759288852 16.597253990505006 16.78578730072043 16.988575550944915 17.172348039519612 17.3056590799971 17.368410583846767 17.3582595353112 17.290949169371622 17.195564613408177 17.10777580763071 17.062609182885254 17.086221829806306 17.187275645610328 17.351814764889003 17.54621018765017 17.72853771267136 17.863204515681282 17.931776770697162 17.935878225595054 17.892623627750833 17.825948951047636 17.757646073020943 17.701131213571472 17.659883512758956 17.630794128962094 17.610186226285137 17.598269501541548 17.59834454287444 17.610880236230525 17.62736736950704 17.63029157477773 17.60132962730414 17.53299662899693 17.435731873245796 17.33586666095395 17.266679905017316 17.25872418544153 17.3339188689808 17.502953910116 17.762432594357552 18.09013460808712 18.44194474835534 18.756799597887056 18.972612364592386 19.048399317974418 18.98164450332844 18.810337193264974 18.596774743565515 18.400850347310286 18.257099827837894 18.16729739011714 18.110366182989406 18.061083085889027 18.005559564785578 17.945984163281313 17.895036488271504 17.86594564648302 17.86459886896832 17.886708609255603 17.91939178098855 17.94524537423777 17.94766307266381 17.916365928205167 17.85106697289459 17.760868258305162 17.659423327198247 17.559541855929993 17.471573112676495 17.40593605229639 17.375368532629228 17.39223996840748 17.46131466139854 17.57371430163369 17.708164408094078 17.840400641648955 17.955304448419774 18.05405938618329 18.151708611492353 18.266124833557093 18.40405196107836 18.55181693599569 18.676898933581256 18.741471331701806 18.721812347801478 18.62251197931059 18.476340746941677 18.32951697592297 18.221583975951113 18.17141442951576 18.174514150035172 18.208447638077477 18.24047656375814 18.234902743734448 18.161204936810215 18.003348217135585 17.767306940591723 17.482454080087034 17.194829701514486 16.954262813941178 16.799971966254937 16.749669699657346 16.795982790479897 16.911673614357397 17.061785825684005 17.21729569128967 17.363407791394557 17.498444701408346 17.62544395830027 17.74354371538944 17.845707546055575 17.92370795698207 17.97533191389464 18.00723375183124 18.03069994348296 18.053490759250504 18.074000720585566 18.081889669367758 18.0642477996994 18.012725845580647 17.927516670779035 17.817366007217814 17.69740571014483 17.586371513769084 17.502923246544185 17.460325280010714 17.460760924186626 17.492758159708576 17.53459540818419 17.563021866188933 17.562972869840348 17.53290031571053 17.48259314055691 17.424892032292217 17.3669679920303 17.307409570100052 17.240824868371874 17.165407872660666 17.086813234154782 17.015729195631003 16.96240345438859 16.93324836565039 16.931412406792557 16.95897358909905 17.017616727916113 17.10739988054781 17.225738185265076 17.368071193371595 17.52893325504041 17.700864229732886 17.870667922372714 18.0161712981142 18.108144325193212 18.119232962944206 18.036231356880663 17.868257905631793 17.64509639990344 17.40641248597128 17.18866698274721 17.017148095032415 16.90528774082815 16.70660780396258 16.782988194934003 16.914245721260908 17.066008467410544 17.19499233572347 17.264438270458015 17.260900401673034 17.2019511067913 17.129429850953954 17.091977429602686 17.126243251976742 17.24458537957546 17.431553011365196 17.647866916675234 17.840800706078177 17.96027839058329 17.97731856347344 17.897489850544304 17.761682913686908 17.631798353410332 17.566811830860598 17.59989417309453 17.72663002925292 17.908529834695823 18.08869506436808 18.211910868926527 18.24130089839246 18.166463781637123 18.001551662761734 17.775363250419694 17.51874366757244 17.255555501086366 17.000706880148606 16.763789494318747 16.553681220932518 16.380364036973152 16.253747880840816 16.1818683718798 16.170283466914317 16.222032632258014 16.33619074518445 16.50451009198044 16.708512129627813 16.920604302345236 17.11058683928098 17.254798042902294 17.34291770275227 17.379385246633127 17.380438696002102 17.36959427588498 17.37254843729735 17.41044184681224 17.49194259207158 17.608264388308186 17.735802217673005 17.846422460634056 17.919687502862878 17.94997773518567 17.94549343015091 17.921461587938662 17.892293773082336 17.866275382697864 17.844022252455137 17.820555682212984 17.790195154226982 17.752260844622786 17.71404562616805 17.68777591567864 17.681883486961812 17.692082005983586 17.699731624289825 17.680600712394313 17.619204168529574 17.519380412964253 17.40471145257452 17.309847024970388 17.26920781463337 17.308964252078667 17.44317373337653 17.670790712822953 17.971214879495374 18.301133847899035 18.598991423246236 18.800776149155947 18.86306361293332 18.782218219803212 18.59809778539046 18.37804060408317 18.1883504799781 18.068326383621613 18.020183738021146 18.017960622848452 18.027276718744247 18.023389128137797 17.999031721418685 17.961410434219303 17.9234870230279 17.895558269133545 17.880463093213773 17.87277103925982 17.861111073754344 17.832837449360376 17.779730690882342 17.702157474084153 17.60903436526796 17.513582665085195 17.42840596307363 17.363904367634774 17.330196244791626 17.338408284094637 17.39740609314413 17.50694677138499 17.652860599747147 17.80955095006001 17.950007075001437 18.057929690871397 18.134768723841404 18.197345608197818 18.26685718745262 18.35458487815377 18.451961134617342 18.531604740510698 18.560667773403928 18.519986937911263 18.417307849736126 18.285471510079883 18.166399860606706 18.091445615610244 18.069934212010693 18.089923562236418 18.126249170683558 18.14877379497006 18.12826458898631 18.041794506376444 17.879271996513406 17.649319505101815 17.380747980313117 17.117273222149947 16.906345065724825 16.78562703654731 16.771757974063046 16.855676966050126 17.00697688344423 17.186219353382175 17.359806259067188 17.50973011997187 17.633223851037766 17.734217510621605 17.81426517597754 17.87007601765518 17.898473248898515 17.903228302941233 17.89705549625771 17.896483672551266 17.913176809882795 17.947754317309833 17.989814611604224 18.023313296842993 18.033511707514517 18.012094228872474 17.959427859636378 17.884651120758715 17.803980756978188 17.736550530062804 17.697603311225503 17.691401687883957 17.708225657935696 17.728383662978835 17.731697673676354 17.707030529813704 17.656168916527314 17.589861954665285 17.518878512800107 17.446507629520173 17.36813767585341 17.278120823846272 17.17809309750317 17.079810380056376 17.00055178946283 16.955363523311096 16.952080625264944 16.99138017573751 17.06948464529982 17.18007563688464 17.31459641752342 17.46267203402168 17.613880614435363 17.759554344083714 17.892103019355687 18.001415084029396 18.071448659485306 18.08148976104671 18.013720314292417 17.863537070362437 17.64586826814304 17.392682018471106 17.142854819405258 16.930785841837437 16.780144118223163 16.70394533394769 16.713299474256374 16.827722452890548 16.998351433941778 17.189345594020363 17.354084472186763 17.4513373391808 17.463172419740108 17.403742306032353 17.31325655586289 17.240697477918957 17.224813916361988 17.281673487850114 17.401261723026987 17.551282017584946 17.68624003412167 17.76123800519195 17.748532526899005 17.651091712941493 17.505590391761242 17.370873147994303 17.305447599824028 17.3440447467548 17.48417433650851 17.688190140748485 17.89832371077922 18.056702698869383 18.122125901366292 18.07868615517329 17.935157113565673 17.717078644654833 17.4557110751871 17.178827762111943 16.906663292534407 16.652855067334727 16.427410525455816 16.238724677682946 16.094010072271228 15.999503425683304 15.961366911265017 15.986122049035693 16.07858400797549 16.2371722160674 16.449547130092245 16.69252822115535 16.93763241168804 17.15933795178668 17.341283755467657 17.477888648846452 17.572745804949758 17.636366233409188 17.6835716345944 17.728861090119395 17.779958666731 17.833624912960637 17.878212138353877 17.90245528136692 17.90428037439343 17.89294182429344 17.883141004034496 17.885854769292223 17.90221719285647 17.923493803734708 17.935828719925837 17.926684819907006 17.890701017370166 17.833499896725442 17.771534773759434 17.726071570959434 17.712161725213463 17.72814916569038 17.75335406784747 17.757416364564214 17.71661101454135 17.627207988248028 17.50825881249583 17.39376508418934 17.32054713523247 17.318613393493276 17.406086818151365 17.585882012360994 17.841347659118256 18.13288086539683 18.40161472903037 18.584417774851087 18.63695904110977 18.55403947017036 18.374886647349808 18.167985317388826 18.001829638860624 17.916915404980372 17.913560279144487 17.959992349959606 18.013167381704314 18.039340437572307 18.024803071363923 17.974997974421505 17.90635085066919 17.83665974716529 17.777908444777243 17.732877476518873 17.695681957949766 17.655844681980902 17.60441261298512 17.539111320651987 17.465511262851628 17.39388063671959 17.33492138280808 17.298136686837942 17.293032968005 17.329475078694216 17.41395777511061 17.543182694595004 17.70024144200688 17.857885663554605 17.988560618374656 18.076087934926267 18.12249840459156 18.145985563859707 18.17038944957321 18.210959633823258 18.263908516862436 18.3067126941579 18.310840037060924 18.26030061527016 18.163983697111618 18.052790740666417 17.963173568288983 17.918452669913535 17.91974808066463 17.9495884988716 17.981974954412646 17.990944559038276 17.95492425934206 17.859340954107353 17.70019054442228 17.48803913834128 17.249476155946827 17.023458506783367 16.852368950456352 16.77012964967855 16.79133872590059 16.90586306365551 17.0821505564663 17.27908291664622 17.461281443790426 17.609706186109147 17.721776084610813 17.802580524137017 17.85521979639476 17.877993468689656 17.869431169990868 17.83536573353717 17.791151523467974 17.756798631039423 17.74849713747744 17.772086173766056 17.821754031684357 17.88349362128035 17.94066889504773 17.979290231441592 17.991955920969833 17.980148813625192 17.954116662225417 17.92911567168091 17.918129417389558 17.9242190905855 17.93758560075627 17.940319276964814 17.916497104443124 17.861128209427427 17.781984047101936 17.693157001959328 17.60489086299235 17.51704069730283 17.421195075436763 17.31006491344133 17.186965230617385 17.068142306745813 16.976547277602418 16.932123386814286 16.94518628101707 17.015570308669492 17.135360094694907 17.291681270908416 17.468336349734955 17.64751497809866 17.81253751526565 17.950412489256955 18.051979806521988 18.109258070185156 18.112681649009517 18.05190282461646 17.921226527006255 17.726512956617313 17.48828676389745 17.237948537776653 17.00891247836351 16.82820410588387 16.71324864339787 16.673674376462348 16.8666157067338 16.993221122906654 17.166364795155758 17.353401571606398 17.51019241223114 17.596713891961155 17.594722655486905 17.51664678668499 17.400065978335014 17.291216742777713 17.226914818078 17.223182341940987 17.272935766456836 17.35020091572152 17.418024505418902 17.439437472398815 17.390898207164994 17.274446497091052 17.121993000274443 16.986894433949924 16.924356507265166 16.969104392076378 17.121061380505658 17.345510417175387 17.586323516410804 17.78485666577368 17.896367216469706 17.899098451186465 17.795098607349185 17.604488837699318 17.356374514602557 17.080141906991898 16.80006917329235 16.534004322530297 16.294614774302477 16.091103222757454 15.930555091564152 15.819419377083621 15.76519236738428 15.776795493769757 15.861910816244018 16.02179535101688 16.24690279542129 16.516945191722332 16.80597805656025 17.089262112737313 17.347722227462302 17.56866164656168 17.744840172509566 17.874296325267174 17.960431249721786 18.009966401745338 18.02859089256546 18.0180925297548 17.978977039698385 17.917426487129724 17.850052669985452 17.80046276486705 17.788321199849268 17.81821568715396 17.87615140354458 17.93579600728992 17.97011647176021 17.962013132535606 17.910137241006293 17.82935670567773 17.746311305943994 17.69018277980694 17.68020518687257 17.714975346223998 17.7704958433744 17.810211839358722 17.802574336705728 17.73625545649801 17.62484514529794 17.50011565682319 17.399742181518704 17.356690444824473 17.393178411429055 17.51692376050264 17.716699409940066 17.958617373632773 18.188910136336276 18.347757816376642 18.391667777033845 18.31416394258889 18.15227771432588 17.97248940507986 17.841587113511547 17.79765961331721 17.836677977830423 17.920281949569766 17.99782508327189 18.02929413183057 17.998393716154094 17.912889121481307 17.796026470302504 17.675102585525057 17.57180006640572 17.49652988155362 17.447533518159496 17.414564899227734 17.385560525448945 17.353054206417816 17.3169546485525 17.28284579310334 17.25847336631411 17.251923389447313 17.27194948708687 17.327425605426768 17.423366098045292 17.555098246968427 17.705352497590674 17.84787803202922 17.956885530413718 18.017746097476945 18.033365838144114 18.022571496743172 18.01044158904086 18.014583937775907 18.034530671852995 18.051395176018655 18.03980131078219 17.98563241084572 17.897610705176962 17.80394739508952 17.73608751392779 17.711158723315062 17.72471214424834 17.756205694906072 17.780342468725287 17.775800377012775 17.728391257229895 17.631309030025694 17.485957979786722 17.303987073518098 17.108438234156402 16.931528747538486 16.80815585569938 16.76635716215504 16.817744967390556 16.95197264496109 17.138882217998777 17.339052879255966 17.51843021234645 17.65897890336106 17.75908954518257 17.824781730167103 17.8596722193238 17.861788501250675 17.828611951714798 17.764698240752246 17.684915279064693 17.6108163400816 17.56305252779841 17.554605847523614 17.587746122673177 17.65480467628396 17.741436646441556 17.831109927170157 17.909961210115704 17.970980179456177 18.015779352405318 18.05212365738658 18.08727178065091 18.120618742116694 18.14112298746998 18.132555363444077 18.083732452855767 17.996528553400058 17.88558372838174 17.769478646856772 17.659355997105948 17.553108761910657 17.439579554616994 17.30997294844695 17.168258141772643 17.033225050076886 16.931318643955347 16.88581899867026 16.90919366917391 17.0014573333008 17.152566993313656 17.345453647328544 17.55833279133759 17.767189570863575 17.94922321849735 18.086239599549184 18.166120607519346 18.18193521061601 18.130545996606863 18.013089531500604 17.83763211525496 17.62155777838267 17.390549437551357 17.173232367515045 16.993985023768737 16.868283265475842 16.803320725606326 16.80222974827908 17.124575020285985 17.24616212618541 17