# vtk DataFile Version 2.0
Really cool data
ASCII
DATASET STRUCTURED_POINTS
DIMENSIONS 200 200 1
ORIGIN 0 0 0
SPACING 1 1 1
POINT_DATA 40000
SCALARS temperature double 1
LOOKUP_TABLE default
18.578384361615385 18.191148614477477 17.773968519441297 17.353641568868074 16.92618024621808 16.480744427493246 16.042971393325217 15.687842905761535 15.5017802053941 15.530180384796516 15.759734826911629 16.138814493726365 16.597176278883772 17.044811922828128 17.375926537199547 17.50506830056081 17.41468595915959 17.167088021398623 16.86695213091939 16.609210533542168 16.45334000411553 16.427461274478887 16.535704660075726 16.754017286815643 17.02567024755773 17.27254818448791 17.425701967145432 17.461955480093856 17.41796957419391 17.359998872819915 17.327821921837902 17.303967293012622 17.23686023011456 17.091129121694973 16.87731495926278 16.645493623832575 16.463005957313186 16.394989118919828 16.486910422864728 16.745397642073506 17.12621951825146 17.543284963679213 17.897946663813247 18.109851724334685 18.134278125463258 17.96834318109051 17.650215624592917 17.245974071367822 16.826640232661678 16.45344566552771 16.179549043869404 16.051740204009793 16.09537901232399 16.29195391951175 16.57519784679504 16.856787072652864 17.064117722450657 17.164032614315314 17.163528141513197 17.095991006981336 17.003000291846526 16.91763617184318 16.85682279833636 16.828218823279954 16.843480146143204 16.919933493169403 17.06439610455331 17.254849589140427 17.441655993146945 17.57205534453917 17.619278592873872 17.595091769000685 17.539664153575107 17.497028228218806 17.49157845622614 17.521962698705703 17.576553622004635 17.655063513614607 17.775571588511248 17.960539453811577 18.21376923058155 18.507784900294165 18.793244327455348 19.023407830169585 19.174643122698367 19.251878430207523 19.28047639923799 19.288281872536473 19.28390234264576 19.24510352270157 19.129668540757937 18.90358784129664 18.567289881820198 18.165582772376233 17.777216453920055 17.48548466056885 17.342863859490237 17.35496813202344 17.49493068363853 17.726620930387433 18.010767190713846 18.29904234606103 18.54001659341664 18.701788908790554 18.78642487190952 18.812616357561893 18.78069401241661 18.661354539153074 18.426531635828045 18.09236835620852 17.727302329464184 17.412992600576914 17.19368882164885 17.060184815330576 16.978824513674173 16.933106079679064 16.94013248151277 17.035837593518995 17.249333535324446 17.584148408318324 18.009519647278918 18.459188404869995 18.84035291215283 19.06004075052682 19.066904314989543 18.88390421447044 18.600473450642635 18.324039018868216 18.128870046979593 18.03820956208714 18.03829089218803 18.095702912212683 18.162447370534693 18.18150636593747 18.10610447616936 17.921917682554284 17.652333167244393 17.34482919258263 17.05250642041737 16.81862319781867 16.66354665967602 16.579471177278382 16.54034502752111 16.523256503741937 16.528744405070142 16.587423361314706 16.74654745389254 17.04117334764921 17.464679010903957 17.95561596026583 18.413522966439803 18.741612835185816 18.889433163200255 18.861839195103386 18.692071485834383 18.411452396807523 18.044164870160213 17.623951769328478 17.20713222846627 16.86213628001474 16.640808872878843 16.55588638059979 16.584205984415362 16.690628986401457 16.848371759613677 17.039052842428443 17.239832811171507 17.416322040509673 17.530971676837513 17.563218762778618 17.527770190304974 17.47386883489578 17.458566964722348 17.5088374536014 17.601661970735655 17.67912389692711 17.68525800822266 17.594904034365815 17.416803813247007 17.176738550242955 16.90064451945479 16.612628643381605 16.34374167514102 16.134411140271794 16.023753077518883 16.03764992192634 16.186991755806257 16.471853546910516 16.88111288360589 17.385942086105963 17.93459254929975 18.456740548559093 18.88148691320798 19.164032261745238 19.3045322561769 19.340995375051623 19.316457642203563 19.246508683834676 19.114513644165264 18.894252749649624 18.044613048691282 17.721366932012945 17.389150449121548 17.06707822502252 16.744135804472073 16.401256431762448 16.05391050800795 15.767391481688255 15.623345736129965 15.67062276394975 15.906809765600752 16.293639751192416 16.770683424624195 17.250687521439854 17.624095253530047 17.798937260758944 17.752456120183535 17.544631789806584 17.280001547569697 17.05445472766966 16.92825591243426 16.927984072239674 17.052007528104113 17.26726630949449 17.5089516513964 17.696618347526634 17.767673904782303 17.713279815471385 17.586669950206687 17.46417760254446 17.38430711326275 17.320988569447437 17.21625204195931 17.03718106763412 16.804201546567192 16.576546021986104 16.421233677279226 16.391283438201043 16.515003322784278 16.78792706344432 17.167355583936825 17.577842513011138 17.92999776685024 18.143135198392326 18.163417868868738 17.977785683307616 17.62075532841529 17.16443120074455 16.693954243125752 16.287662987182465 16.01251495095976 15.921053130849138 16.034959094306124 16.32503088971843 16.71162666540977 17.09268880732805 17.380788356366516 17.527332850924008 17.528500857386476 17.418400517306264 17.253083344208402 17.088505250099107 16.962644210929362 16.892725503075788 16.88480040656332 16.940995203234326 17.056111125878278 17.209927164152848 17.366133182952346 17.482350343769095 17.527722722249905 17.49944744084982 17.42664438832875 17.35479478279438 17.319896324707926 17.33394547025683 17.393311750657727 17.499140152836816 17.66922677192173 17.928632656634967 18.28317085197648 18.69644626085065 19.09308160525966 19.390139619479097 19.53538563306053 19.529783647610124 19.42390478661004 19.2885091655795 19.1725015849891 19.074270343992453 18.947765240388094 18.73945333908304 18.42963608588143 18.052708660599954 17.686632432773322 17.41713897717674 17.296949708512866 17.32809646056189 17.477460211807326 17.70261443432115 17.960614151290827 18.203185724054414 18.38213732003693 18.471213162903116 18.480419253411345 18.438860470353713 18.359090461299015 18.223205751890426 18.00951265667975 17.732726006950195 17.453773586672032 17.245377751699902 17.143703759782078 17.130318607164657 17.15926896798705 17.200847426058317 17.263050632953398 17.38089562975848 17.590665855129245 17.90564233888395 18.300138172170662 18.7062491973691 19.028369181997594 19.17697608343502 19.112248183125526 18.871598740581405 18.554537355442477 18.270700708880927 18.091425333019934 18.036843034021594 18.09003164814803 18.208759166136872 18.32688717924116 18.365220388258983 18.262787269373618 18.008792803787703 17.647756181910637 17.255702464656604 16.9084307922511 16.65823473025155 16.52197135613749 16.48201036092057 16.50091602634175 16.543649910978505 16.597528459362202 16.680216293312867 16.829141395553577 17.075893052095577 17.41966813436632 17.814733400494525 18.182636580984965 18.448565365726445 18.578304219592596 18.583646651400688 18.493475582253247 18.323141723213897 18.0725653215428 17.750517100128658 17.39557665958658 17.06905362039435 16.82518821768647 16.68673498107468 16.646466573171573 16.687102718945987 16.79521869648974 16.956748220471024 17.144808982218514 17.31659834511111 17.425123590742555 17.441397859077387 17.375528447330634 17.279220701217504 17.21878943321562 17.231874407292278 17.3022746178006 17.37549501555416 17.398877949065174 17.34979123230911 17.234090669734197 17.06737254867762 16.86282152150542 16.636304366638168 16.41730393325214 16.24706635022377 16.162971303623323 16.186505475036835 16.325197486396245 16.57984784484513 16.94446111758088 17.397867219970355 17.895074407845566 18.367653635303302 18.740128767762485 18.959794507291058 19.022106575705738 18.96902750123342 18.856539475990175 18.71691261686159 18.546797088395728 18.32569074575113 17.46017186798462 17.258495305220624 17.075429318671926 16.912898030008982 16.742847219701574 16.53055013875952 16.278549259140558 16.045067198173715 15.913900266102187 15.945614714362872 16.154951113894075 16.52020613984055 16.992811942311857 17.490919344827727 17.902643868351923 18.12576692979782 18.123158899551743 17.944101212482266 17.69301896182215 17.476177285130678 17.36614584138108 17.39278374991161 17.544606854851764 17.77195981282737 17.99765565094411 18.13964434882789 18.143401820867044 18.012087518948235 17.80890813450975 17.61530445386057 17.471581756954695 17.353870600474263 17.208453921426646 17.006936255956173 16.771641502481202 16.558927843098047 16.426802186848665 16.41390249768155 16.534168008560258 16.777459576029944 17.109548753254064 17.473805087156638 17.798519435453482 18.009546999154566 18.04788288400989 17.890805926649318 17.56556778336072 17.1413117639694 16.703152250920485 16.330952227202065 16.09429962319961 16.048576250661355 16.21642490122115 16.56631775988038 17.013656192640283 17.44971720864578 17.778614006741552 17.942642863750915 17.932266857453932 17.783888261224302 17.56520202728336 17.3491725045328 17.187612513316036 17.09968920576306 17.079477961970753 17.111752020752814 17.18313352246412 17.283091296197885 17.395892457074172 17.492086967890575 17.533601374120682 17.496442584885454 17.39270229868624 17.268055623983173 17.174862949358793 17.146163124838264 17.191625329291945 17.313420376162476 17.523560186454983 17.84246173646947 18.273185234504197 18.7713633861353 19.242309643913867 19.57575047948232 19.697091315949347 19.604482905679056 19.37056644399807 19.10427439338165 18.89132551474873 18.750526601026586 18.63549932215388 18.478491380667954 18.242750232283118 17.949253351304375 17.66558961220772 17.467541135760918 17.39849187063078 17.453741581665255 17.596814674659477 17.785079487404204 17.979001341600444 18.137842900847442 18.223976177976944 18.22211564954633 18.151432660923064 18.048503920201025 17.9336193858334 17.797584626604017 17.625350258783747 17.431111930879673 17.266047061454195 17.18742422054867 17.215761717125442 17.319484019173842 17.44215685727958 17.546837193464835 17.639173993643467 17.75787869805863 17.947713377457642 18.230628394675357 18.58430892021827 18.93790814301375 19.19258601425918 19.263709344759587 19.12683429389187 18.837978646559524 18.50718671698599 18.24086596635619 18.097798150876343 18.08555952689291 18.179364458597124 18.331222396086513 18.467740184283862 18.50211403519417 18.37022267585668 18.066373026880147 17.64796799867588 17.20692674754413 16.83182862295851 16.581097320688365 16.47146889588535 16.48070533109993 16.562668462672374 16.66948245928608 16.773682432106355 16.88018130772631 17.01811937417556 17.215646217693845 17.474903169573906 17.762753314799028 18.023557670680464 18.209989945384336 18.310641861758203 18.347722398671802 18.345471049914103 18.301678909470642 18.190913457375316 17.995144579674623 17.73049856926703 17.444114626225073 17.186523026435466 16.988072538962125 16.858896278069114 16.803620313612072 16.827943736156374 16.92893054811043 17.0824612401036 17.24278812283116 17.356077227776236 17.382865539211434 17.320988181803592 17.212943576268504 17.123100263994157 17.09411844122866 17.11898324554093 17.155158488373843 17.163424105852755 17.13132359032989 17.065576623714684 16.97234306335439 16.850988085307485 16.706556522042792 16.5630363868806 16.45811963558835 16.423514424621406 16.472706707432064 16.60643149198026 16.824148186944033 17.125817481031287 17.50115136800414 17.91500424457113 18.30202164297183 18.582439475587012 18.697674460982814 18.643451676313127 18.471865004564453 18.256267632029175 18.047015883514028 17.85376119294371 17.66166887955711 16.891832646391453 16.841158933015688 16.844907909287148 16.88159473296097 16.897478500416643 16.834835620606427 16.68000074822437 16.48569495593832 16.343093045548425 16.330392828749 16.482953982385062 16.79617273750077 17.233766136669175 17.72226731793994 18.151555053671835 18.40973797558295 18.44021055489477 18.274700579937708 18.01548788062614 17.78435841895282 17.67424309905116 17.722949735722246 17.908276528846468 18.160631850355685 18.388593412556848 18.508619097594746 18.473097125845474 18.29165598860366 18.02908084573374 17.766864855067382 17.550566173886438 17.368724485783176 17.181057972636143 16.96496628245658 16.737724967583627 16.543184776396448 16.42412342784746 16.40441223918779 16.48771633217298 16.664257059553 16.91467850625887 17.207521567136624 17.494708992152507 17.713304821848734 17.801537027303546 17.726343151656327 17.502989595479036 17.188107072081344 16.853346538063875 16.566489730497384 16.39081255748389 16.382916956326593 16.57102713873459 16.92882397353185 17.37457386916222 17.80095519177544 18.113532278631737 18.257091686408657 18.225627936181617 18.059307956711187 17.829432916982974 17.612228467752953 17.459956594026245 17.384971205078813 17.366662286187747 17.375144821048146 17.39474924410071 17.430741093244965 17.492312113832515 17.565369108336697 17.605389446909108 17.56567509537284 17.43718363066624 17.260892606926646 17.102851244819227 17.017931114553107 17.031754912120512 17.14934830600881 17.376252545048196 17.7255078257134 18.195540031293536 18.736625774171998 19.242905616534333 19.58707538255644 19.679047564566318 19.51377959611575 19.178866585589166 18.81178126141768 18.52806199666085 18.365808933980656 18.282797378769654 18.203377246517 18.076587590003214 17.9061222067513 17.740152801371657 17.635572202951586 17.622693741278997 17.692957343416506 17.81312274622746 17.946334205433192 18.059807812487712 18.122195378576127 18.10860349266387 18.01698231601399 17.87601575881602 17.72689074049962 17.592674689162912 17.468636125361424 17.34507883382369 17.236843993056986 17.185966502151498 17.232149192574045 17.376921454688564 17.57460492101926 17.761478215144376 17.89903854801549 17.995498838644696 18.095152540986593 18.250107453324542 18.488845491437633 18.791476928721803 19.08493973423865 19.268752657191733 19.265235253226265 19.06765712314297 18.751631169144474 18.43495864042927 18.21370137203866 18.124952450337375 18.15633432362516 18.2730153101957 18.426454184322328 18.54816758238786 18.558507945628246 18.40029474113545 18.072629570450083 17.635610534960207 17.183613520367757 16.80890658664592 16.57461484044751 16.501316314608424 16.566445197241148 16.716261616786475 16.88852820723723 17.040141256232516 17.16549257351209 17.289721968925335 17.440117874549586 17.619798564524874 17.803016093978105 17.952735098017396 18.04849410006403 18.103494253072263 18.152396471527332 18.217193802032686 18.28265610391773 18.304480182108357 18.24262941148633 18.090087169591644 17.87373884488628 17.632583768023903 17.398451873871533 17.195450117531433 17.049144468219353 16.985585421500684 17.015889990335815 17.12231556660424 17.26001555864625 17.372707803977196 17.414826736119828 17.373778545670458 17.279431180040387 17.18564400201487 17.13032467631495 17.109505881745758 17.092191327329196 17.056851425224355 17.00813994470335 16.96156020493891 16.92083280794857 16.87524443880459 16.81805382317208 16.763005560690655 16.738613949114253 16.766919113306432 16.851282648417598 16.984398052814292 17.163790194342774 17.395791649252835 17.681803366951833 17.99658016381626 18.27755268396394 18.44206008289645 18.429783593901966 18.241901634855623 17.943707252131315 17.62526929709678 17.35203172321307 17.144403635255312 16.993979798665066 16.433237109382066 16.52173530059638 16.70382824492347 16.93551490645665 17.135117390847455 17.21895418643952 17.155257587271212 16.990761285094088 16.824475705796715 16.75256416953816 16.830004943167754 17.067141884799984 17.43902937384541 17.88336541232021 18.297827322051763 18.566230883682675 18.61334701854683 18.449610884353444 18.17044704129472 17.911211503878402 17.78690418558001 17.847048306522034 18.06264797925076 18.347177349238038 18.596435663805554 18.724503184561954 18.686462692765808 18.490840033582277 18.195675428642257 17.878062652351016 17.59102441333237 17.342196854212172 17.11049756781804 16.880239087777735 16.660666548888173 16.479244078683482 16.361601658272416 16.317911692275512 16.344968878390056 16.437515036382006 16.59449366517215 16.811827998149443 17.06662674497213 17.308766500937764 17.47512538682276 17.522075770405007 17.449405719149198 17.29417349331959 17.10551141683588 16.93071624866853 16.82128049868336 16.833378797089207 17.00250450780245 17.311534436414835 17.687516429477988 18.033360989937187 18.26881522452104 18.355758651333066 18.302153200464883 18.151788740646438 17.967457057875066 17.810036027182164 17.71595673234023 17.68325790628889 17.678667182975534 17.66493795167565 17.63089355317289 17.600595353971496 17.6086740315785 17.65819389320291 17.702595443017557 17.6761513391658 17.54707247853684 17.344064337483857 17.137417999212385 16.99766226684048 16.965731331015665 17.052807573670567 17.26176787103638 17.600589132607734 18.065183715304627 18.605338852841054 19.112561714804126 19.451847254020823 19.522747433801584 19.314495844539408 18.920272586423565 18.494662521561654 18.174967415750178 18.016542927023455 17.98403691453376 17.997444532510322 17.992131193976267 17.95114528033391 17.89868245417033 17.871012279254188 17.88879064178283 17.947300782120042 18.02502814368062 18.096260849390976 18.135573788326578 18.118251968307735 18.028550861219724 17.87455782659082 17.691482863453555 17.521404008962755 17.385667060333336 17.279949206961113 17.198241734530022 17.157660550162113 17.194596566365952 17.334240171255143 17.561169903091375 17.817855593603046 18.03632721218914 18.179076813615243 18.25736971865451 18.319395673433085 18.42229974189945 18.600363154322718 18.838168647946297 19.064345610202494 19.18033514598005 19.116970490031893 18.88415773431791 18.573126789465213 18.302873756684562 18.15162639487967 18.12880505622193 18.19945716792104 18.320429356237735 18.449053049175216 18.531930936400116 18.507170622753762 18.330469530155913 18.003469955554763 17.579907628707982 17.146398271540306 16.792937248214916 16.587115920394982 16.556402793146894 16.680647289732672 16.899107829768077 17.134525492691093 17.328509788608933 17.467747287323107 17.577918090324804 17.68893222795248 17.80432757306958 17.900572987951435 17.95187015747231 17.958107982721007 17.95305659247783 17.983119806527956 18.071977701552775 18.200654638529244 18.318391592518793 18.373646439745546 18.340375007494078 18.22234438573916 18.040013259922738 17.81873303724846 17.58937700619111 17.392751773076068 17.271512136223127 17.248713585381918 17.311784226436245 17.41709111643698 17.509945017092313 17.5473976062089 17.516669108319086 17.44080841818809 17.360745001344217 17.300713682640573 17.24957027873829 17.18047583363509 17.086764280937203 16.99262329466314 16.929720130588677 16.90898493280198 16.917034319561058 16.93726217150523 16.97002615481982 17.029847931653467 17.12589814007856 17.250547565131157 17.388527471121282 17.53500684414754 17.701276502621695 17.8983641861345 18.109598133472844 18.27683791375498 18.320078426169534 18.184167773429436 17.879168839399448 17.480575015689563 17.087214631981208 16.771085351590436 16.55820275590235 16.446543141832265 16.182762943584983 16.361248771205705 16.665581181311783 17.037804595899594 17.374714682153638 17.570713258392317 17.577319369004524 17.433597721784423 17.242145209952874 17.11163109197956 17.111110743409235 17.260953874801835 17.544541027272714 17.91175522931857 18.274249030281705 18.5207905429506 18.56483119954073 18.39634239447367 18.097845908909644 17.809696184373312 17.66391931490278 17.723702517739213 17.960793689311295 18.27985203537029 18.567843832894173 18.734821719299237 18.732955858390664 18.562662740776272 18.269122692882043 17.92154478200454 17.580001997611937 17.272582727348933 16.9987574644164 16.750647566698298 16.53068056261555 16.351940857965147 16.22542901583779 16.150404809384643 16.11964262794364 16.13425274876139 16.210726826354065 16.368817479154416 16.60671238792193 16.885428926106417 17.141942384750383 17.324234605348295 17.41680404964064 17.43510727509116 17.403119553545405 17.34529491822077 17.298674945789767 17.31557694720066 17.435637280407477 17.650229202817048 17.89893258174207 18.104173233972066 18.21364066604289 18.220218497286933 18.153482704538124 18.05748028745379 17.972490283769062 17.925491976015152 17.92289859776668 17.945118424596057 17.953580129878173 17.91503776622851 17.830047553826542 17.74113235376444 17.704000552758576 17.737238634365017 17.796331956582993 17.802460976989313 17.702280141523513 17.505853509708228 17.27702807907034 17.093127743352788 17.00756261270962 17.040518439212022 17.19726509307267 17.48526693102961 17.90225221618378 18.403401930057225 18.885339655033153 19.21267339086995 19.27780096148849 19.06088091629944 18.651782656286723 18.211920730916766 17.89287505239404 17.763898609361746 17.79566949819009 17.90304913737864 18.006129048168138 18.066423884816004 18.08633241431345 18.087515607499885 18.089413393753976 18.09978283447349 18.115740039698483 18.126412093691705 18.113263018829045 18.053646843986442 17.933622642079563 17.76349331390049 17.578652262972387 17.41816043023666 17.299333454127208 17.21634731703506 17.16554637144974 17.16698223420406 17.254854477829642 17.4452840443012 17.711820919899303 17.990109701211754 18.210691760242366 18.336563367050307 18.378908002571492 18.386287961731746 18.419378415507428 18.519995084633965 18.68173193117546 18.840253671863923 18.90230707832128 18.80642378252859 18.573601017542575 18.302119161559737 18.10395811260498 18.03490257176603 18.076763760467077 18.1753876292322 18.284081568171946 18.371317281496925 18.404071591061975 18.342354143272683 18.155983248999135 17.846605212072898 17.456506421536453 17.05948470547388 16.740114675542358 16.569413692292557 16.58203428988073 16.761176846403085 17.04045858729741 17.329429177160463 17.556706875104155 17.70401535038157 17.800798389114323 17.882671916352823 17.954600570483215 17.992024384010033 17.972569394106173 17.90631907373211 17.838772453606865 17.82412665641793 17.890865304587667 18.026124925858642 18.18619326256809 18.320600714193176 18.39224280953145 18.383919464560787 18.294801467899244 18.137713325996128 17.942375363748027 17.756405627344645 17.631273730154675 17.595184766989192 17.63501154420957 17.705115272806978 17.75474356016576 17.753201609952047 17.701526505193346 17.627519543763693 17.562747251654756 17.513137061937982 17.451424376722816 17.34550269272173 17.19606676018752 17.04355155211561 16.938471298919488 16.90655073186559 16.940145118773973 17.017840821780634 17.12703948492605 17.266042312033505 17.429231919346087 17.59776980079391 17.74894274556044 17.87469266730019 17.987821372473604 18.10442274332237 18.214689098927657 18.269568940326177 18.201773809717977 17.970536167628413 17.596165807403587 17.155937582023654 16.7435824010783 16.42474020973713 16.22297811171309 16.140289076660352 16.200575456330398 16.403312396596426 16.746343084120078 17.170673582381205 17.56477916007268 17.81177854050856 17.85201476246865 17.71595033159422 17.503289129849975 17.32613563854159 17.258888241880232 17.324760292284523 17.510211161642186 17.775616869560782 18.05102834718009 18.240848405479106 18.259276028673195 18.081628342916293 17.772798603223137 17.466286250630183 17.301082005732187 17.35299009107726 17.6022703711038 17.95463130096925 18.29333385491838 18.523240927818478 18.589363449769813 18.48019598302112 18.22549672534341 17.88399057362586 17.519074847567726 17.17498027043252 16.86874993758319 16.60056247401893 16.369839124737233 16.181083903388036 16.036503207301216 15.9294830167029 15.85251142398757 15.813710073060905 15.842449426232072 15.972790387628894 16.214166360675822 16.534115499860704 16.871912516603945 17.17285864845672 17.41131920778734 17.58478389371646 17.695125631745363 17.74587324983187 17.758189199753073 17.775095452982914 17.833646701006963 17.930021871828668 18.018660550371422 18.0498845899246 18.010533956740986 17.933142674105806 17.87030346630274 17.859285103060817 17.905116786611 17.98783878184833 18.076776772588975 18.137795513748692 18.13891507337385 18.064426947483426 17.933497321911492 17.80397700663713 17.743561582063144 17.77923114867275 17.86826032883205 17.92343665189641 17.873542331106893 17.708474825176854 17.479515912077012 17.264090942396248 17.124697536268357 17.091373114866617 17.17503066141984 17.386267431326598 17.728314247802942 18.16616278651776 18.606869229507044 18.919692518511777 18.992369257188347 18.794033620986166 18.405187977532762 17.986531421575588 17.697515775813866 17.616699380360544 17.71712575233405 17.905222178212757 18.084080247911796 18.195941671939952 18.228759734569213 18.19996162053845 18.13721658233492 18.066707445390573 18.007002121036937 17.963250016959943 17.923395979384964 17.86329229939136 17.763184359645937 17.62590208762734 17.479311924355706 17.35639454848846 17.270995353605628 17.2167273505051 17.191589501714592 17.21723438343411 17.326351475646913 17.530229362794827 17.798188064497122 18.065527509796294 18.264489575869803 18.35747785965453 18.35210121781393 18.294576865618023 18.249035384418672 18.26717299689994 18.35509707604402 18.45868463640642 18.49093906437956 18.394710077512872 18.193968929205287 17.984330294536427 17.86476411474735 17.869688299893753 17.96000297106449 18.07003444348918 18.15454948882374 18.194833325948956 18.177691495276665 18.083489343126928 17.89466970805036 17.61220450599379 17.26686423784453 16.918878478547423 16.644787489946665 16.514970413209443 16.567844163596313 16.789434198512847 17.11075486981304 17.43333795081156 17.67761296425878 17.823181636193627 17.9047672324616 17.965494997478217 18.013624507718372 18.022717072985554 17.9676930807339 17.858249644293046 17.74085618858949 17.671323226391955 17.683564882985838 17.777328992837436 17.92575533221733 18.090090258439492 18.231818239726564 18.31985190651294 18.335103537501652 18.276003999633073 18.164809540084992 18.046937948436014 17.97309549931309 17.9679815369931 18.010978305686297 18.050343575703018 18.039959348208264 17.96819073568133 17.86114806670268 17.762426508660248 17.70059102923199 17.663796795873804 17.60501134103979 17.480743747983688 17.291559807943557 17.087269200773868 16.933901968018564 16.87378658934456 16.910634072518732 17.024348318891118 17.193274625793137 17.40077502032799 17.626662057508284 17.841577451701262 18.01618453931299 18.137940646131515 18.21632938508697 18.266352572639278 18.283092875070427 18.23274701207811 18.07266973946753 17.786238429620255 17.40430768103469 16.995856602136072 16.63436373215636 16.365265022249634 16.200275558900085 16.140524492722 16.478433912819117 16.650891091800386 16.953849064159744 17.339093898384764 17.701811311657714 17.92794915332397 17.955858603276532 17.80914889355958 17.579128435521426 17.37165714415301 17.256637832931684 17.252245852305343 17.342049608349473 17.493398816408714 17.656339385947653 17.7596329501616 17.73111156095983 17.540593532445875 17.233987668707385 16.9269128310699 16.753058882457047 16.796166451954964 17.04976067172136 17.42922776891807 17.81990267525803 18.122472861083544 18.273898687265973 18.250863653792496 18.068169230371918 17.771785076326772 17.421946954809084 17.07076808098734 16.74732572597338 16.4598275024612 16.209459820443694 15.998999881674004 15.82878992710061 15.692759342303138 15.587901024816285 15.529542652461453 15.552749424839455 15.692555618977218 15.956391805806184 16.312204878256956 16.70476802539398 17.085507335085616 17.427963235771806 17.71917491383628 17.94457643955369 18.089812038086087 18.158874894809752 18.180001919548392 18.181257060467086 18.160376185195386 18.088300505922977 17.948165109768702 17.770259161185624 17.626578737082735 17.58692415194624 17.67287759903667 17.846405285618275 18.037249663325905 18.180601668004012 18.237244199054967 18.195134875603337 18.06777854808067 17.8972432598902 17.751500694482157 17.698773110087075 17.763488583989663 17.899925314926218 18.014589106939102 18.023661042231847 17.900716141629797 17.684548970016895 17.449690576330866 17.264252351847773 17.16650014894538 17.173698937037464 17.301485545741976 17.56037309665559 17.926527932042937 18.319183563319903 18.61500634932857 18.69997209076164 18.53324347433072 18.183932748298442 17.80748916907331 17.56569923163359 17.541104286930864 17.704662021848197 17.951465275308614 18.167565842499794 18.280232642603643 18.271534801646833 18.16463226048159 18.002579993036168 17.832126209679238 17.692031600797584 17.602128622643665 17.55659085071549 17.528490515048627 17.487412296647715 17.42097787023836 17.342853080721955 17.27770379864114 17.23772263453352 17.21845164028619 17.219678080408173 17.262441782179586 17.376219508132614 17.569082036234118 17.811183367312072 18.043494432217166 18.203962825766144 18.25531841887925 18.200759787012455 18.083424063610806 17.970616823297256 17.923220037477986 17.958433616899292 18.030844695535208 18.057999587182625 17.9834056689378 17.827592331594143 17.677385873418743 17.618126021286752 17.669773725731854 17.78294887319154 17.88850882359026 17.944760247785243 17.942970892258604 17.884944856469033 17.767165737909227 17.58315369876108 17.33517843833134 17.04591716727206 16.76277254691109 16.549862935156956 16.469256937540273 16.55695581982313 16.80114188379059 17.135643296195102 17.462500965189356 17.701110985550226 17.83184471935073 17.894207186895507 17.938305058377956 17.97684074775479 17.982082832260666 17.922726800919307 17.79999605522401 17.652166570348268 17.530595221119203 17.473198437218947 17.49446674057244 17.58877924683842 17.735662385660245 17.904010894403843 18.058294859595218 18.16788724535216 18.21795145273672 18.218534010792162 18.204568049183962 18.21745143933249 18.27209378400384 18.337178625326466 18.353915737645508 18.280981874975613 18.126905755231032 17.94554260274182 17.800627233748127 17.72287851320585 17.687494331660734 17.631059039772417 17.499330850429832 17.289481246280992 17.053935661287742 16.86660465156504 16.78146459165997 16.813466634675432 16.947901815738735 17.159681082238578 17.42200406477561 17.703318525618624 17.96584370888946 18.17447940829045 18.31034194550917 18.374250844731044 18.373933523839433 18.30750522458287 18.16177166730066 17.928473807904247 17.62263779059617 17.285866304807687 16.971689372008402 16.722633062590095 16.553686414002375 16.456569764650563 16.425226492952056 16.9421862067499 17.