# vtk DataFile Version 2.0
Really cool data
ASCII
DATASET STRUCTURED_POINTS
DIMENSIONS 200 200 1
ORIGIN 0 0 0
SPACING 1 1 1
POINT_DATA 40000
SCALARS temperature double 1
LOOKUP_TABLE default
18.129828330816217 17.921293547379914 17.685313285348926 17.43013979132119 17.167862455458966 16.91527119485233 16.69345250849331 16.52524339488279 16.4305500723192 16.42074055027148 16.494070073570708 16.633969768903835 16.811177061936526 16.98954592921505 17.134272016027833 17.22038995665775 17.239008334479507 17.19917854193825 17.12462873255114 17.046379652511433 16.993684804001777 16.986166403892803 17.029377341062002 17.114726246938723 17.22330287138917 17.332033544333516 17.420023053186853 17.473065061084785 17.485165741695155 17.45726111330081 17.394512186572797 17.303974550109015 17.193817735070326 17.074022788496624 16.957410479859305 16.859574534252243 16.796891403706724 16.7828363013272 16.823788899032163 16.915943304613602 17.04469075826463 17.187025509641526 17.316455487025987 17.409010354761545 17.448590987481893 17.430213776664814 17.36049076415829 17.25557311432481 17.137389730468026 17.029160094794744 16.950980865747262 16.916092456724172 16.92842275168422 16.98205193075538 17.063013706450946 17.15318513899684 17.23517914153123 17.296662271952695 17.332738189766417 17.345875129541685 17.343844563495832 17.336760671389175 17.334318378316212 17.34385194450461 17.36926164561117 17.410558774464995 17.463875324088225 17.52206340134603 17.57611612663754 17.617383631854604 17.64007673900861 17.64321266633639 17.631253056497254 17.613199180299386 17.600532515187343 17.60474998743905 17.635178039149842 17.69740373812757 17.792349363290196 17.915954787850538 18.059562923354967 18.21117150357484 18.35751499842325 18.486523602063443 18.58935837643591 18.661249622000494 18.700860120024416 18.70863846139088 18.685198766420424 18.630781312756174 18.54623068678214 18.43498950437053 18.304901096118503 18.168588021611797 18.041857781270707 17.94057632627075 17.877168378260624 17.857982720732217 17.88225553292441 17.942698672177897 18.0272273097524 18.12117042628005 18.209391211382094 18.277958730044592 18.31530555999899 18.313101459993145 18.26717143897644 18.17851237336828 18.05394787889279 17.905679182050203 17.749354744479547 17.60116816357103 17.475222700299145 17.382301999799132 17.33023170023988 17.32489435161291 17.370515463353243 17.46840140370678 17.614490087954938 17.797111501698705 17.996633990949903 18.188026326675352 18.346074869460693 18.451640265175406 18.496590623744115 18.48537590737667 18.43256009032555 18.35734785516291 18.277314565703993 18.20359690291021 18.138868942001217 18.078190087090366 18.011919456686986 17.929563213850624 17.823481219449583 17.69158543894657 17.538435816121552 17.374525410527664 17.21404902369667 17.071938860282703 16.961208019499452 16.891480967184773 16.868991298245763 16.897527786878985 16.9792471476827 17.114346337195222 17.299358023958295 17.524888338322846 17.774280031489557 18.024466004001756 18.24924620070388 18.423997121152834 18.53016591944414 18.55816739120006 18.508204609156483 18.389396879346243 18.217909069102003 18.014557438355222 17.802058160677017 17.602071722228427 17.43245527864668 17.305311205610796 17.226227939405646 17.19463723753837 17.204837237409496 17.247244528082387 17.309762397377572 17.37941745643636 17.44431798170693 17.495574843978833 17.528475494412483 17.542297654746303 17.53874801288276 17.51975695615467 17.48573859249024 17.43516147910755 17.365553496544955 17.27537117659135 17.16589585007565 17.04250210760463 16.915000649169656 16.797013540432467 16.70445229628177 16.653273669388696 16.6568711296256 16.723631148427735 16.85518221917191 17.045662272188657 17.282078718952025 17.545700960466693 17.81439584391933 18.065712190080585 18.280217979253894 18.444236359846577 18.551069280293234 18.60028368495244 18.59549353525164 18.54176113825387 18.44377391415766 18.30532326003147 17.872504967305648 17.692340428971377 17.497224139184432 17.29104615648953 17.080697922774377 16.87781165518379 16.69924884913133 16.56523894884832 16.49499348380571 16.500940225291643 16.583616915015174 16.729244189887496 16.911173975815704 17.095217504651476 17.247659837737718 17.34379726803991 17.374376510245785 17.347714276919497 17.286617219017835 17.2210564934823 17.17906023006953 17.178798518295896 17.22422143424624 17.305256269778045 17.40204520548718 17.491485497009382 17.553739534664924 17.57659778451331 17.556589373200744 17.497190300398437 17.40570375046086 17.29071630027648 17.16128626107849 17.02769143334362 16.902502309819564 16.80055722150246 16.737090494037083 16.724308903022184 16.767554832072797 16.862504220435255 16.994582352956844 17.141090927582617 17.275672544787312 17.373980170164174 17.419027284142658 17.404807719699992 17.337339350420955 17.233059379456893 17.11515534115673 17.008736998203997 16.935773483313216 16.910658665449752 16.93727385489522 17.00836571683457 17.10766818724665 17.214385901865917 17.308743160149895 17.376823759359656 17.413216883077578 17.42091058683967 17.40894240052796 17.389004167811407 17.37225152697033 17.367093805139444 17.37809632744281 17.40570093842124 17.446447849107482 17.493643914680124 17.53864845421719 17.572868803567193 17.59017417183348 17.58902562625597 17.57352358918605 17.552924759703487 17.53978420528119 17.547355408974575 17.58696193174103 17.665792211654754 17.785276759450852 17.940163660249652 18.118593467384493 18.30357781409808 18.475995346846243 18.618538414583046 18.719362027839942 18.774020549613496 18.78489046854129 18.758442421406077 18.70180985769954 18.620439552337416 18.51794200653838 18.39794788438169 18.266600855343054 18.13397689441933 18.0133781671699 17.91865141858148 17.860689412254793 17.84456311519404 17.86828312405396 17.92340220387909 17.997009904274677 18.07435671272599 18.14134525107272 18.18634040028276 18.201121666259112 18.181220246192037 18.12610225492327 18.039455421640525 17.929314807510984 17.80740310762142 17.687316484067264 17.58198544014457 17.501538145069492 17.452615440170582 17.439262719389333 17.464404586317748 17.530442846117392 17.638081457957245 17.78372184293913 17.956910690298322 18.139675978904762 18.30891884642074 18.44161903122556 18.521121785987035 18.541978224678527 18.51121459338608 18.445399033656344 18.36469875514314 18.286301072656467 18.2195585689955 18.16421918662427 18.111821669398687 18.049397608968363 17.964203418865154 17.84815729494828 17.700822822194496 17.530157897168646 17.35086376996098 17.180915506692127 17.037470650076326 16.933556776799737 16.87658614450182 16.868923447744496 16.909773695620423 16.997038501182146 17.127895409715038 17.297704582260536 17.497989132445316 17.714968626647288 17.92995190819906 18.12189281872141 18.271217833705037 18.363412980691436 18.39115495398377 18.354677862510425 18.260887403294642 18.121952848800866 17.953766292289977 17.774233432301745 17.601278208758668 17.450712555266193 17.334396572709142 17.259085939521118 17.226067755132007 17.23142858538775 17.266809757993236 17.320694684135653 17.38033011817825 17.434109137902734 17.47378429122702 17.49563598610133 17.50001395785459 17.489435331696235 17.466202699857167 17.430763742017568 17.381575638121337 17.316379333005194 17.23411012197928 17.1365524079334 17.029205207581303 16.921270830065396 16.824902031984717 16.75384535187447 16.721604165214035 16.739341344838234 16.813871031669212 16.946104393339095 17.130200000647367 17.353560696893634 17.597816235217415 17.840939526952003 18.060446293896955 18.237145289135256 18.358385529288032 18.419634708191477 18.423783430757553 18.378576292584174 18.293396618572796 18.17672817005802 18.03497676752997 17.607856569273007 17.468821604221723 17.327205526640537 17.181728481243706 17.03328966548433 16.887659101290236 16.756945502140752 16.658499378600904 16.610877764335278 16.62793438394458 16.713143143756447 16.85636042699019 17.034450215064382 17.215969768303385 17.36883923884655 17.468860313325486 17.5064050561198 17.488918366787242 17.438178346296652 17.38312857117716 17.35072222043759 17.357868912819523 17.407028476961443 17.486581508849632 17.57543143891453 17.649939269266493 17.690670124484445 17.686734198060375 17.636647508042255 17.54617927939756 17.424878213316493 17.283240093214985 17.131672345133182 16.981070156177832 16.84379605382473 16.733713214714854 16.664596300449066 16.647205356721795 16.686016209736003 16.776810163642715 16.906087440893174 17.052752045510676 17.191878897468918 17.299758418961513 17.35898180853928 17.362247220690328 17.313905169741396 17.228906200724673 17.12949013062546 17.04040727781078 16.983639391006584 16.973638237878472 17.01413038608878 17.097422931873446 17.206644963993142 17.32045008298124 17.418757185150035 17.48766583815798 17.52204637870338 17.52529149394559 17.506806020740775 17.47849408594977 17.45154474686297 17.434324714932682 17.431496415811893 17.443973887887125 17.469241516461878 17.501849830465375 17.53427682713771 17.558454923352308 17.5679653079373 17.560378148977584 17.538868190674965 17.512366970946594 17.49407925851384 17.49881797126846 17.53990560735231 17.626268408990484 17.760084625899605 17.935279569534586 18.137338646856758 18.345017493374517 18.534169785582396 18.683029764517116 18.777322319635935 18.813218704197013 18.796841766810825 18.740546206113496 18.657757070029305 18.558818110318406 18.44963910097741 18.333308941992577 18.21322816430668 18.095644228034775 17.99004617851695 17.90721944526916 17.856015725850447 17.840395722041283 17.857957204014756 17.900359164291082 17.955294968970772 18.00923208588665 18.05004444162965 18.068850868308438 18.060784416663836 18.024917766759 17.963875909164567 17.883525868059973 17.792631871290336 17.701975803979 17.622628695084018 17.56377354184348 17.53111467969841 17.52681014628287 17.55095203209864 17.603518764352728 17.68526867145532 17.79662775996925 17.934919073915133 18.091499408083564 18.25077457467203 18.392366323962264 18.496187163211513 18.54858402486522 18.54690452841623 18.500347068831427 18.42658920673471 18.34557555141395 18.2729636850448 18.21558261922383 18.17016310885929 18.125308302896325 18.065769985845176 17.97768842740684 17.853369140705635 17.694302935751647 17.511549635151557 17.323344311800795 17.15068288730486 17.01235577296961 16.9210920363951 16.882017643793368 16.89366055311546 16.950644629126607 17.046517346206628 17.175247997385252 17.330821760196507 17.505564867057668 17.688637402645877 17.866009112303576 18.02227403335392 18.14351552413063 18.219870035028062 18.246777634265072 18.224808793813807 18.15871429763346 18.056459043495458 17.92854219383689 17.78737740001458 17.64635744698552 17.518488499823235 17.414823782009503 17.3430451439487 17.306427785505022 17.30330807483408 17.32721302526113 17.36788861510193 17.413325616526112 17.452434845186982 17.47751068217788 17.48546530489392 17.477269963309922 17.455930048711444 17.424106556310694 17.382641805814323 17.330640723398115 17.26682739840992 17.19127701295576 17.106656723375096 17.018608300396323 16.93539266895577 16.86707319173365 16.824401980963245 16.817460306947115 16.854142805898682 16.93868299948826 17.070444795127727 17.243146479011852 17.44467413323066 17.657744211362143 17.861736062076954 18.035779329112906 18.16258865128559 18.231900086586496 18.242192462938203 18.19996019723511 18.116888327271997 18.00618936016803 17.87951031380946 17.74519499488141 17.370686243489107 17.280199977960997 17.197981915667743 17.117361768594392 17.033085749912306 16.94494055747169 16.860202696100366 16.793324495413252 16.76227916840944 16.782541524860584 16.860868932808913 16.991256103603515 17.154697166760076 17.32314059688589 17.46669732310866 17.56204258133034 17.599325475888204 17.585114531435895 17.540118147841085 17.492288970538365 17.467668428892818 17.482156105138202 17.53695227388008 17.61897098040354 17.705697436745172 17.77246805030433 17.799492011293307 17.776304866717535 17.70258155812519 17.585821524824397 17.4376278409318 17.270547099618444 17.096645562331023 16.92771445186068 16.7760305211952 16.654456875246456 16.575263311751762 16.547867043376677 16.576259805283776 16.657030448590735 16.778723888114143 16.92295848624269 17.067319392832047 17.18956681821325 17.272231716344006 17.30641321032469 17.29372475406757 17.245851108820343 17.181839448197547 17.12376989999264 17.091728874499687 17.09914041538278 17.149573934388314 17.236009563732274 17.342985648487826 17.451100519256453 17.542407100120187 17.60487292555643 17.634529061181507 17.634951783124983 17.614761105345096 17.584399601311052 17.553403010430053 17.528836227630336 17.51487195847278 17.512988821748923 17.522198906375674 17.53908203524948 17.55793277089104 17.571603976924884 17.57338302534288 17.559567492666996 17.53177497478451 17.497907782438094 17.4712098850805 17.467644338179532 17.502365395399277 17.58611828984635 17.722172981976442 17.904274336487536 18.116214269399833 18.33371729405924 18.52892837745701 18.676770897090893 18.761260771856595 18.779335657890545 18.740468412133257 18.662127082090585 18.563105525900887 18.457736213294606 18.353389030920145 18.25180470161965 18.152817269502602 18.058023255271035 17.972395040831206 17.903254457605897 17.857474934975233 17.838496127338164 17.84453574921147 17.868625621404767 17.900289993676964 17.92814354225411 17.94249201783158 17.937150078520833 17.910104979654708 17.86319916630108 17.80137083681484 17.73190938977598 17.66372672615377 17.606270255863066 17.567854070947106 17.553820475490394 17.5654921890205 17.600725794641097 17.655967101674143 17.72864184756952 17.818296608506284 17.92551960009912 18.049006177398564 18.182404320691486 18.31301246324407 18.42367536620045 18.497622932671156 18.524329469960872 18.503681523681774 18.446365466146506 18.37014470140942 18.293603819825787 18.229934321109067 18.183011782090453 18.146805285599175 18.10788752292866 18.050020047065242 17.959484917814276 17.829784904071705 17.664444750490954 17.477032545672806 17.288268900746235 17.121038506016752 16.994886750627415 16.921805675196 16.904634631223097 16.93836453239767 17.013450797145538 17.11945280846139 17.247355641719082 17.38982171163036 17.539881412799758 17.68943991360034 17.82891059326333 17.94836933191603 18.039530160744736 18.09733939776134 18.12036685383846 18.11006628020644 18.069673743835793 18.003538889228622 17.917138413079083 17.817413558826832 17.712854943306798 17.612977819942273 17.52719925267804 17.463359247629743 17.42618917003659 17.41607485435957 17.42855734957023 17.455010683937843 17.4846236017299 17.507206498279228 17.515783167701255 17.507850305803473 17.484778221703476 17.44980225754025 17.405808954111283 17.354140812323823 17.29491193248606 17.228368247401495 17.156306244979806 17.082762593474975 17.01381178307078 16.95681203138383 16.919511365871223 16.909192667514127 16.931829082274973 16.991212155534704 17.0881098193767 17.21954910692424 17.378298009190445 17.55267831807445 17.727021687636615 17.883194741706422 18.003384629330757 18.073699868908854 18.087446130886633 18.046727180351564 17.961594796451838 17.847062860634 17.719220218599506 17.591838906437765 17.474276652891145 17.191535468455637 17.150324708670706 17.12529622128746 17.104925426607263 17.078457096746426 17.040307569534047 16.993376498683137 16.949452307049278 16.925944391498632 16.939832390621465 17.0010330668504 17.10768341607921 17.24512871164562 17.389146051973707 17.512594366103187 17.593548357809972 17.62229650666767 17.604682417366565 17.560343251979752 17.516211642153507 17.497480753767555 17.519243312245006 17.581727508911484 17.6706135068184 17.761979638418154 17.829804910550884 17.853246309210327 17.821312556362532 17.733834693923907 17.599214987408004 17.4306138239842 17.242487118993996 17.048679273833045 16.862113828245977 16.69522785009528 16.56011642568061 16.46780758495274 16.426730577398622 16.44086838524377 16.508198095705612 16.619955874054813 16.76114336465921 16.91249471067242 17.053759274049927 17.16766226928355 17.243513758376388 17.279411295680166 17.282384475740333 17.266445650985702 17.249039099148806 17.246692765401406 17.27085094300829 17.324961764459044 17.403765141608677 17.495163914632005 17.58412335915701 17.657183046576424 17.705922626047148 17.72828227461091 17.727664707064076 17.71065239996454 17.684535054640076 17.655601792943997 17.62854519383887 17.606682793085053 17.5923189371603 17.586627070742388 17.58892187860261 17.59584995382714 17.60141137464613 17.598476022583267 17.581624848040196 17.550236578708017 17.510386834050845 17.474587542554225 17.459341797598956 17.481293231919878 17.553007253556846 17.679245942108842 17.854408698612573 18.061849079919785 18.275823037989134 18.466397888180254 18.606554109510505 18.679380044509475 18.682584025904713 18.628238805731428 18.537644962693346 18.433479030359518 18.332668100855077 18.242918955508053 18.163820205100397 18.091127916543357 18.02154042426669 17.955543032767327 17.89734265875895 17.85252517756316 17.824995097166212 17.81473491395156 17.817249428602036 17.82473052312201 17.828339670136735 17.82069494289844 17.797698693558186 17.759227999291664 17.708770531428055 17.65249872505198 17.598255188548002 17.55453359542693 17.529207921009345 17.527900396671633 17.552437776158637 17.600292201743308 17.66568700353755 17.74213973386431 17.82519775465613 17.913755421176315 18.008985487741672 18.111268769123058 18.21679784843179 18.315984125052744 18.395054405949555 18.44057171827591 18.444911059229156 18.40996788924702 18.347108650247495 18.27322769740333 18.204664627211862 18.15157820437711 18.11484599252166 18.086234085896056 18.051351267729988 17.99426903907483 17.902559184915507 17.771546261195112 17.606673396982174 17.42318813091542 17.24301653897851 17.0895937181421 16.982197612699895 16.931606913348062 16.93847894075729 16.994821398060836 17.087703055560038 17.203474238001977 17.330725456026062 17.461076641558897 17.588184273465068 17.70628422719639 17.809575415709546 17.89287006408433 17.95287910287472 17.989039548068842 18.00319929244663 17.998358350925194 17.97732073454858 17.942092149373273 17.894277703467296 17.836083788114628 17.771239940078384 17.7052959082599 17.64508310421631 17.597422124858614 17.56736952769635 17.556504258923244 17.56192994342707 17.576615232666864 17.59123914683261 17.596968853822112 17.588003379996948 17.562723037368322 17.522996797414674 17.47222917308042 17.41341327660783 17.3483274573747 17.278160928215964 17.204895349541076 17.1323781415868 17.066400034868202 17.013836607448475 16.981425046545425 16.97473098764271 16.99750736652762 17.051346071909006 17.135466256931057 17.24656601477089 17.378711437054335 17.523242045539693 17.668768150252223 17.801561273584227 17.906792189290595 17.97086553911164 17.984484909115633 17.945403998021984 17.859612757888723 17.740251669940452 17.604572916698743 17.47010899298119 17.351325775823568 17.25745962437854 17.091244287554364 17.09375500352663 17.116231764629184 17.143533913541653 17.160838219020842 17.158530323986284 17.136127384472566 17.10324570245366 17.07669809970252 17.07453317128601 17.1092184416912 17.182518857571722 17.28392509146404 17.393231579332447 17.486555867087006 17.544007832112356 17.556544917765283 17.529550792351856 17.481577444182907 17.43837194646378 17.424154851684413 17.453278358356563 17.5252783635414 17.62497462680315 17.727299543082125 17.80482676321558 17.83520687047499 17.806105964073932 17.716501943365177 17.574720900471533 17.394726555994254 17.19245968501606 16.98344985646334 16.78192487991969 16.60083438849767 16.45196732498361 16.34562418684515 16.289751763515845 16.288751954959107 16.342286821256575 16.444448638078736 16.58371877099309 16.74410011171899 16.90752294838702 17.05711663568195 17.180473032347358 17.27191472543268 17.333107095429934 17.371902462109727 17.39977461886449 17.428476943901842 17.466727349759566 17.5178409609371 17.579133690254732 17.64339427466933 17.701855998886305 17.747371659131062 17.776428039010973 17.78932407974156 17.788837294266543 17.778389947368343 17.760757505848904 17.73784734745653 17.71138872902501 17.68386379911482 17.658865842763515 17.640351679457574 17.630891475526965 17.62975555192006 17.632081795077834 17.63006058826693 17.616077399753518 17.586607236711917 17.545098305389597 17.50248856625241 17.47507507632118 17.480491793030964 17.53300508048722 17.639223584081172 17.79507019436773 17.98480851920306 18.182910009277965 18.359114146657323 18.485912033309177 18.546264759556372 18.538574700610464 18.47656463658924 18.383782002447724 18.28494730321902 18.19788267984182 18.129358109397735 18.07609687899897 18.029628958445805 17.982101145327647 17.930254425808855 17.876210672617084 17.825461747637526 17.78358930333482 17.753410077137456 17.733669898104537 17.719567958272197 17.704657030704006 17.68322973656466 17.65225172399664 17.61224013185007 17.567045427788017 17.522942863303072 17.487489713326134 17.46830031826562 17.471620633244143 17.500716754132814 17.554571872578226 17.627724437417594 17.711798269638106 17.79838227938552 17.881969761571064 17.96136180666302 18.038597142553737 18.11580426671065 18.191650604264655 18.259521600041925 18.308823109450998 18.32913899127536 18.315271867507978 18.270488143326613 18.206105397855538 18.13747191231103 18.07822715265191 18.035408531744938 18.00724857231105 17.984080988326184 17.95160216852457 17.89528575800198 17.80482788970928 17.677679875820395 17.520832250673507 17.35021513314048 17.187585214667116 17.0555446980944 16.972079767016943 16.94633725982219 16.977039450392976 17.053999947948764 17.16198645686563 17.285237303834208 17.410803979478597 17.529699268919128 17.636132699261005 17.726095900888186 17.796599836427195 17.84601933346308 17.874961775523534 17.886627340449856 17.88603622492912 17.87836552300297 17.86727935017412 17.854128437003034 17.838344276095288 17.818705330666564 17.794799117566242 17.76802672303443 17.74173621203853 17.720366510223872 17.707804464387568 17.705515082681362 17.71127535344262 17.71927199096988 17.721767689370015 17.711704370955747 17.68500816083298 17.641453681154317 17.583764569893198 17.5156811875176 17.4403115408885 17.35978483921537 17.276256340784453 17.19336881908583 17.117026045494526 17.05488918586528 17.014870064947047 17.00341339734405 17.024264497296617 17.07795976502562 17.161891686833773 17.270698320102372 17.39679796665059 17.530942658399823 17.66267935989056 17.78071195934421 17.873389306957492 17.92971705656104 17.941136082261405 17.903783089995542 17.820369432885332 17.70066072596552 17.560041992329474 17.416541353183575 17.287358265655655 17.18594891945953 17.12015122146609 17.076899330146887 17.113295706747206 17.168631319332874 17.225815977394607 17.267916760161107 17.283156618467203 17.26908836780557 17.233880558983117 17.193720622170435 17.167086315659166 17.16804327971155 17.20107715885321 17.259265583713315 17.32636256692038 17.382141966410863 17.40938521856438 17.40029972127115 17.36009399314611 17.306145725875133 17.26267098102291 17.252561730363624 17.28930416877584 17.37195641318432 17.48495747609698 17.60262201422737 17.696442187642525 17.742501401841277 17.72663378281932 17.646141183936297 17.50830534870372 17.32699406707825 17.118980308029055 16.90117494933654 16.68917184188671 16.496803623607097 16.336120608922258 16.21731249084022 16.148347548117098 16.134298455008256 16.176446565814206 16.271408044842296 16.410711145192607 16.581310821285694 16.76728085959319 16.952417880715135 17.12302119966327 17.269995688024842 17.389720854851568 17.483598209836412 17.556541944516262 17.61484689932307 17.663985261532318 17.7070071403397 17.744166608747083 17.773942194886697 17.79487537292975 17.807109338341224 17.81265897314994 17.8142696336196 17.813663255986775 17.810363926002136 17.801909831094626 17.785414578766193 17.759683855079878 17.72678880982662 17.692197488093647 17.663142659966745 17.645685838285313 17.64167839292953 17.64715328510046 17.653267154011033 17.6497745184077 17.629701228969417 17.593181375029967 17.548780165029836 17.51179000487114 17.500204566968044 17.529700162020788 17.60891119934328 17.73599592402406 17.897346487984926 18.069237542829658 18.222776115761082 18.33140870689496 18.37879420453968 18.3639788399198 18.30137481292622 18.2151208757244 18.13003054398352 18.063026561068103 18.01867480365866 17.990299798082066 17.965433288727382 17.93254150438078 17.885924354955463 17.827103557220376 17.762898998950305 17.70172681475784 17.649993835671175 17.609974697341883 17.579691024782374 17.554474864224314 17.529340950282315 17.501146143848924 17.469798992892585 17.438334446591266 17.412153295108375 17.397852321023812 17.40186130646505 17.428898514210015 17.480380354667712 17.55331383322933 17.640428627995163 17.731969911730726 17.818719605636105 17.894959390858613 17.959849930404538 18.016350828869943 18.06807975605437 18.11573587031836 18.155162370146467 18.178409229677573 18.177530372456125 18.14918360227528 18.097445859884616 18.03312734522227 17.96979141278369 17.918450699813466 17.883431462782227 17.861015489791427 17.840969022542165 17.809959463282215 17.75558989853165 17.6700735326985 17.55290034151557 17.411978430672985 17.26282094243754 17.125662010077264 17.02098095738377 16.96457318610083 16.96368058186549 17.0155089618518 17.108666675735147 17.226916275064237 17.35366813827242 17.475420048249873 17.5830670024752 17.67127622497859 17.737129926366713 17.779327585753546 17.79843015183734 17.79759914257489 17.78281614734616 17.761940566632816 17.74280032667298 17.731161473639347 17.72948478202048 17.736923874793767 17.750423098577656 17.76636648425067 17.782109037871354 17.79681450541333 17.811259141862596 17.826638308216495 17.84289162581839 17.857433710071287 17.865130301713148 17.859758720829213 17.836307075327607 17.79287501358895 17.731109139381545 17.655002751606542 17.568936696345837 17.47630607829876 17.379617830326247 17.281873154892498 17.188136367744473 17.106080316688146 17.045010383145495 17.01382118305782 17.018853717981553 17.062458800781172 17.142535847220984 17.252875322228682 17.3840052969196 17.524306680604887 17.661211850644758 17.782302426776184 17.876193633295237 17.93328827617146 17.946652853332616 17.913184727131906 17.83486337746806 17.71947410390958 17.580138953941916 17.433438991742523 17.29660243438218 17.184662109618472 17.108329668230525 17.072757012192543 17.140238818465704 17.199235055105795 17.271427304847986 17.33947094907571 17.386391809935137 17.40029135333585 17.37836323046571 17.32819852495221 17.265397040064222 17.20820142355366 17.17121832206659 17.16058600115846 17.17222120850283 17.193589952322018 17.208354781801084 17.20247780327145 17.16990052466835 17.115844868808757 17.05629233593093 17.013394404914326 17.00813463483138 17.05280608511172 17.146099121206255 17.27260575532071 17.406786972306147 17.519769627204987 17.586488646579994 17.59092712155118 17.52825238683475 17.403926213195646 17.230830298140383 17.025788628006993 16.806603249355103 16.590126006807274 16.391323864689625 16.22299130432512 16.095723545377094 16.017846161561376 15.995093120192148 16.02995889649493 16.120880447420305 16.261666646680425 16.44168117938554 16.647041689971243 16.862615330714263 17.0741897630352 17.270162010774943 17.442401466351832 17.58632258285617 17.700387345121868 17.785260636387246 17.84286507091791 17.875698313670675 17.886777669108618 17.88022455917166 17.861911533835194 17.83927069018449 17.819743342498096 17.808310069502426 17.805392158925812 17.806472806336064 17.803947131716765 17.790525079125352 17.76271115093724 17.72284536198086 17.678794661980163 17.641284624707637 17.619758454361747 17.618322450911812 17.633524114714987 17.655162571168383 17.670092756191128 17.66758068481396 17.64398117851273 17.604826593814547 17.56362145193612 17.537974844297203 17.544460842330146 17.593625746987268 17.686249623960467 17.811754830371054 17.94954138339871 18.073605184838677 18.159735679317915 18.19317080849682 18.17368447717165 18.1155757574871 18.04205665065774 17.976189193649997 17.932308624666124 17.911670327910198 17.903926245578493 17.893195744414697 17.865531647396224 17.81442384103438 17.742423726825905 17.65898871896037 17.57615690546625 17.504134287317417 17.448422412712503 17.40918948034081 17.382646789281235 17.36353423867836 17.347601704837466 17.333220664737542 17.321807961696546 17.317262201904256 17.324814422877502 17.349576913313957 17.39492805179129 17.46097365827957 17.543619984402753 17.634913046879763 17.724929705137292 17.8047257874758 17.869116250758484 17.91789860532508 17.95474992720874 17.9841952196688 18.008172968663647 18.02414519095741 18.02603025178353 18.007690065649516 17.967116066858445 17.908860004635187 17.84314794692719 17.78200654582021 17.734400526142057 17.702771421155212 17.68237083620922 17.663239562796146 17.63363472915518 17.583586093994686 17.50774309262892 17.407154642681487 17.28979335122748 17.169624184234106 17.064129544031367 16.99058798837725 16.961939835000333 16.98346402958073 17.05144590580104 17.154410519282514 17.276494032474908 17.401590308746844 17.516605722929597 17.612755564830728 17.68502334156994 17.73090352034454 17.749684955151974 17.7427763583503 17.714560804501584 17.672759881278502 17.627588809354272 17.58976850584077 17.568135633406776 17.56777099471589 17.589270499141435 17.629285447171156 17.682017753744535 17.741079310767674 17.801028912564675 17.858016602696225 17.909339351885045 17.9522749772637 17.983035944761284 17.996705190797954 17.988437429787908 17.95533201071358 17.897818146066584 17.81960916557444 17.726201467147472 17.622893216380966 17.51364767874831 17.40154074822419 17.290410818036808 17.186475574765 17.098693916744622 17.03747052964304 17.012285902233508 17.0293122266993 17.089856008387805 17.189895507573677 17.320537489099895 17.469104629265846 17.62063832943017 17.759637162840388 17.871802568122824 17.945554626556554 17.973196965592493 17.951759505516797 17.883556869619746 17.77632714582703 17.642640726823707 17.498343348198933 17.360183341237462 17.243228320756128 17.15882169074754 17.11348586618103 17.108585904151564 17.259239049578614 17.3307592947608 17.4059914528196