# vtk DataFile Version 2.0
Really cool data
ASCII
DATASET STRUCTURED_POINTS
DIMENSIONS 200 200 1
ORIGIN 0 0 0
SPACING 1 1 1
POINT_DATA 40000
SCALARS temperature double 1
LOOKUP_TABLE default
18.137260317947348 17.92659928390755 17.68811260968655 17.430043442100395 17.164505431940096 16.908432259158417 16.683252550563882 16.51233256854612 16.416162280232562 16.40654404542554 16.481836509788067 16.625158093776434 16.80655412559115 16.988955903857303 17.13663830552293 17.22397994980062 17.241906146304075 17.19982130804901 17.122222993781943 17.04105932556584 16.986378177776054 16.978246029759333 17.02222570125658 17.109354509033473 17.220128707297672 17.33087211416978 17.420276624163535 17.474021865638697 17.48626978372945 17.458230165355832 17.39526778614389 17.30445928464167 17.193839365215023 17.073239792957825 16.95548038929518 16.856388056899345 16.792766957138667 16.77856674173536 16.82049627404693 16.914776915293917 17.046468485217645 17.191944378455304 17.323973889397024 17.417940706046025 17.457365981868197 17.43723465499885 17.36445338277978 17.25569695463688 17.133524448787764 17.021781725495746 16.94109592400719 16.905054432585832 16.917665194227812 16.97277550289639 17.055911612776804 17.148307206981066 17.231992361996866 17.294283202448497 17.330240190055274 17.342552981002665 17.339356802032643 17.331137589746756 17.32788016218286 17.33709815051986 17.362769630739944 17.404891332810326 17.459480767324354 17.51916884497445 17.574648476467654 17.616967465845523 17.640133380044634 17.643133268283897 17.63057686270011 17.611726726550966 17.59834334888096 17.602146473993496 17.632604513167834 17.695377815689987 17.79140654352056 17.91658318499201 18.062114452768803 18.21577007156411 18.364009253826172 18.49452424464212 18.598357391912337 18.67076766269093 18.710543481605814 18.71824939501779 18.69450465990216 18.639415069142977 18.553623402182918 18.440443902301514 18.307795363457636 18.168621617347842 18.03922156544632 17.93596610009311 17.871638770114597 17.852708513977735 17.878292137916684 17.94081061641816 18.027811399388774 18.12426627700122 18.21475182309655 18.285140815060565 18.323736970378988 18.322105534672012 18.275973171985388 18.186284026519854 18.05993172380263 17.90935556152159 17.750562544878118 17.600095038126064 17.472267301579656 17.37790350466735 17.324784920991156 17.31880169250955 17.364322271160663 17.46289504376949 17.6106558733008 17.79591618752495 17.99870411736458 18.19335784265759 18.35392017417508 18.460657287386272 18.50522418672543 18.49232761865274 18.437155371538907 18.359660281782354 18.278027078615594 18.203691637822256 18.13928216430428 18.079542436545946 18.014375472643437 17.932827920983915 17.82691488565063 17.694398798823258 17.53990987555267 17.37418982159358 17.211763059826332 17.067853077326905 16.95563377082558 16.884739090969592 16.861325711455372 16.88913773622043 16.970421190588645 17.105608776467456 17.291512695759195 17.518891020065812 17.770968350028717 18.024265017306504 18.251989562685498 18.428942264003766 18.536178908595883 18.563978792195634 18.512636087298613 18.391514574499634 18.21711731772673 18.010659197049677 17.795280315714813 17.593027355492207 17.42202655815228 17.29447890766962 17.215906302631446 17.185563906720898 17.197525603626513 17.241969180689004 17.306549516264695 17.378045259765404 17.44436125515594 17.496518686935243 17.529876891742344 17.543924853471257 17.540619962759674 17.52205265859766 17.48861987521813 17.43860076034375 17.369248079667322 17.278770272107987 17.168310102784705 17.043244047090912 16.91351857523682 16.793003758778966 16.69794206408268 16.64466128256922 16.64690810516189 16.71334398385086 16.845747994999673 17.038258111522577 17.2777192967814 17.545076668940574 17.817739046251923 18.072739578097195 18.290194736451337 18.456164409968775 18.563935358301364 18.613261551165166 18.608017483416546 18.553465823429242 18.454372132214573 18.31451133451494 17.875021171562295 17.693291030959756 17.496507665464293 17.288456101120254 17.0759294215831 16.870577487661 16.689501228835937 16.553402753076206 16.48207697076546 16.488435250156353 16.573196803713465 16.722349897890506 16.90861453935936 17.096907717650193 17.252591108087366 17.350281408716878 17.380511930835326 17.351928687250588 17.288096531812748 17.21991138523335 17.176189356512275 17.175521191213026 17.22182165534942 17.30459065636301 17.40333298073412 17.494335142147836 17.55738460735958 17.580232864552958 17.55965268620507 17.499468119942527 17.407231733974655 17.291569818920657 17.16141006440469 17.026881315305737 16.900548712604934 16.797463921278993 16.73324501605386 16.720510954545617 16.764874654576346 16.862009493858064 16.997018573888504 17.14661682573393 17.283736825041988 17.383383099133678 17.42815337709562 17.41196385174999 17.34110601781604 17.232571436324516 17.11026308946746 17.00003398060595 16.924493470796417 16.898446653301598 16.925850335657493 16.9991442391035 17.101431417649827 17.211132428867067 17.30776407542945 17.37697744924176 17.413293409575985 17.41995419188478 17.40643755416454 17.384900710675392 17.36686926302459 17.360976573301063 17.37187288938901 17.399972979964662 17.44169523531316 17.490136181083464 17.536375492856866 17.57152644944462 17.5892353286526 17.587890958916596 17.57170163661149 17.550173204971237 17.53616759105875 17.54322265318664 17.582882132998254 17.662483271283456 17.783527152607792 17.94072046123905 18.12200190207271 18.310006150579103 18.485124831440352 18.629597069576576 18.731320607400786 18.785880186576108 18.795930893446 18.76831134903726 18.710419244059544 18.627745426658233 18.52375263098818 18.401885321444446 18.268245170295614 18.133111286503258 18.010195986181397 17.913812675149707 17.85520016056252 17.839537866343974 17.864689969466756 17.92187485647817 17.997767763374533 18.077233350214904 18.14589645009396 18.19198156829901 18.207237455824504 18.187212379405135 18.131392406283016 18.04350148445812 17.93168719927296 17.807902515709937 17.68605175385718 17.579334621165444 17.49799475188559 17.448613199027516 17.435097229314724 17.460304999506096 17.52673899081564 17.635338807202622 17.78272498571939 17.958457123998954 18.144249689292007 18.316392917693584 18.451147372622913 18.531308342389302 18.55128385505428 18.518441304108478 18.45004896386855 18.367068485925756 18.287299493132107 18.220349367514878 18.165831189281636 18.114844897743726 18.053831447266283 17.96947816504582 17.853313917976617 17.704798354193294 17.532089738467548 17.350314356364905 17.1779437677695 17.032533716605084 16.927292710587363 16.86957807351792 16.861553291078923 16.902229587969252 16.9894584598249 17.120550839135905 17.291098778146896 17.492791990531597 17.711806705309783 17.92916237957674 18.12337172962022 18.27443321788993 18.36755503313859 18.39532848432997 18.358048967905322 18.262759010081226 18.12180296939966 17.95129119304552 17.769399912167554 17.594350561832258 17.44221996082064 17.325042316514395 17.249633363317905 17.21723813991961 17.223819349463145 17.260820961526314 17.31646206976457 17.377693128237343 17.432657183788418 17.47299801420875 17.495081989244344 17.499503160718305 17.489058967342448 17.466222927031843 17.431418534551238 17.38290231603978 17.318138455846977 17.235824513964246 17.137618047352543 17.029017744550664 16.91933598913059 16.82092524936176 16.747801572465555 16.71377875334539 16.73032847918075 16.804525144365243 16.937451475293727 17.123315632177313 17.34941536512448 17.59709501475848 17.843871539276286 18.06671066937688 18.245918874360594 18.368544394371913 18.430040563382043 18.43353376502454 18.38711753538772 18.300483126427952 18.18229532350282 18.03902146914577 17.605229416664898 17.46553980082285 17.32346606798013 17.177489927003315 17.028250746334255 16.88137717951518 16.749094118091975 16.649163803893327 16.60073891149949 16.618233139356672 16.70541646684976 16.852032288223576 17.034406586769162 17.220251615804408 17.37656401887769 17.47842647590757 17.515940665388843 17.496831945937565 17.443614098922566 17.386159978746488 17.352224848304797 17.35913835685572 17.40929531316451 17.490596300434163 17.581255042717252 17.656995535173692 17.698021120609393 17.693451169805595 17.64211218566547 17.550189597796603 17.42754040594913 17.284746523943603 17.132117443670378 16.98041350107844 16.84197827445531 16.730839805026818 16.661077612012754 16.643776326182163 16.683619713151504 16.776378280707807 16.908282916936255 17.057741804155174 17.19920713811039 17.30836697099292 17.367387984234853 17.36884191718356 17.31729563544558 17.228218029427335 17.12456360284018 17.031854799681906 16.972752454685896 16.96214526307586 17.003831919538122 17.08977774938979 17.2024254213333 17.319585911260454 17.420425801002864 17.490591213483984 17.524889973284232 17.526996692484804 17.5067954559261 17.476691078072726 17.448259576151315 17.430084156292498 17.426889046428894 17.439544655341464 17.465425276747528 17.498914790570414 17.532265751017928 17.5571470510438 17.566901504153385 17.55897306717059 17.536585543980525 17.508893848813962 17.489435858428287 17.493379248555982 17.53435576873394 17.621520285692068 17.757169909634648 17.935187538093547 18.140791467050835 18.352225640230557 18.54467086982185 18.69572078577494 18.790723144347364 18.825885248798656 18.807753953044493 18.749294184163123 18.664451110063 18.563796707174404 18.453155213712453 18.33537081916117 18.213664870796283 18.094328500512603 17.987124399052366 17.90321249776038 17.85174174696874 17.83676231377936 17.85572133613434 17.89994543921818 17.956722497099417 18.01215702499884 18.053890360494357 18.072972181299583 18.064598083831477 18.027961665354223 17.965805426186513 17.884105388432943 17.79177079237924 17.69979812813862 17.619505227260337 17.560248931040114 17.52773634713398 17.523952946965444 17.548755407665485 17.601986963643323 17.68447488480958 17.796886299557425 17.93679611205459 18.095618081837763 18.25748751910029 18.40145666434916 18.50676867599984 18.55928807727135 18.55630043822367 18.507419332492848 18.43106354685452 18.347964699879125 18.27433951388346 18.217189161173025 18.17301590116698 18.12989341398763 18.07190663828294 17.984579159316073 17.859824752911177 17.69908411827374 17.51372317956967 17.322536485095462 17.14714384741143 17.00681864445703 16.914489721733865 16.875176347579895 16.887096197270395 16.944538850459864 17.04086077369382 17.170052443943934 17.32626948801948 17.502006818758932 17.686449542886685 17.865404456504603 18.023188442889765 18.145626163110784 18.222712593826486 18.249871437642238 18.227716115836778 18.16102928207836 18.057781027944863 17.928491458945427 17.785664793711092 17.642870181032478 17.5133435913025 17.40836744676113 17.335807175390286 17.29904668219006 17.296430758882753 17.321370057263774 17.363367383674515 17.41009344123386 17.450166973405462 17.475736347732685 17.483777010647838 17.475493327987238 17.454164063750433 17.422616635578407 17.381673770308847 17.330262633308916 17.266873336892406 17.1913942945191 17.10640412335673 17.01755101885587 16.933173733461373 16.86346981510084 16.81937604908399 16.811196417414017 16.84705975183105 16.93141232046909 17.06377818331463 17.237949227387986 17.441753351381273 17.657671181923593 17.86466011255296 18.041311547441612 18.169835734997097 18.239670534574504 18.249306379002064 18.20553246696974 18.120471430563693 18.007747483803723 17.879287180127854 17.743568203036514 17.36346257392027 17.273404205900242 17.192101595659306 17.112499529408833 17.028906111578635 16.94079148866326 16.85541406009982 16.78757378355485 16.755856790256843 16.77638608318501 16.856346512769054 16.98975922401031 17.157195372856446 17.329826124320714 17.476849553769803 17.574181760409964 17.61163320163308 17.595989020255725 17.548661643963214 17.498540944105105 17.47250044473573 17.48688123690168 17.542808629069714 17.6266743994545 17.71521858487818 17.7830963232547 17.810137321820346 17.785897358308844 17.710396334849698 17.591601936624635 17.441490060261465 17.272762061169725 17.09744387206545 16.927218849841292 16.774325254425083 16.651722514076 16.571884747568976 16.544455804327875 16.573580760460914 16.655855473302225 16.779647201590144 16.92621425087122 17.07265049739072 17.196196336023682 17.27896997544762 17.31189111521632 17.29669711673498 17.245489555090803 17.177943329242552 17.116850001437683 17.08294107377204 17.09006402222758 17.141860795389285 17.230981794022124 17.341304904097385 17.452628008844478 17.54630653826561 17.60991046362237 17.639449515520685 17.638795522532114 17.617029127885576 17.585046748014012 17.55270653808941 17.52722327681551 17.512783059781917 17.510811656337065 17.52025234930404 17.537599725991548 17.55701028320435 17.57112391476287 17.572977588133273 17.558677296844134 17.529810920824286 17.49445823287108 17.466208972628493 17.461446192545015 17.495722657025016 17.580093092669877 17.717995574200728 17.90313714757924 18.118995039416706 18.34068085568782 18.539525157711363 18.68966499454742 18.77464307637247 18.7914362175301 18.75006104887572 18.668802398049056 18.56719948410179 18.459980339703826 18.35448688899881 18.25215437941888 18.15248979781466 18.056950084154284 17.97061263812192 17.90105302589206 17.85538067884031 17.837116459199187 17.84435559288076 17.86984461638001 17.902756644442242 17.93140089906423 17.945911923596285 17.94010205386603 17.912092999311724 17.863921595895427 17.800711224252094 17.72991071989353 17.660596674924943 17.602409455856666 17.56384528914025 17.550322375258602 17.56305314084903 17.59961360099918 17.656127970571475 17.729833437702553 17.820329604299825 17.9284647259491 18.053229891722864 18.18838533029244 18.321015782531898 18.433454414029853 18.508327491675807 18.534703354944554 18.51248213765207 18.452814764873605 18.374203784067895 18.2959600781579 18.231732746436954 18.185460501125384 18.150798230075846 18.113742011229355 18.05737702201134 17.96738813484637 17.836927402751865 17.669528332475203 17.4791388395777 17.28712042494676 17.11705715384168 16.989028849416584 16.915237640328648 16.898375692436467 16.933035209825253 17.00921730735306 17.116164463201525 17.244778615058745 17.38783190492152 17.538519396189965 17.688827908576908 17.829119673207394 17.949343872605333 18.04111695415668 18.09938060727771 18.122768488644528 18.11278082193915 18.072609753784366 18.00646941399339 17.919679774176874 17.819094949102695 17.71324361989576 17.61180420525166 17.52444202853274 17.459274259687596 17.421275385108338 17.410971897122113 17.42388392189242 17.451187289049287 17.481752963971438 17.50507750951765 17.514008798420903 17.50607469069363 17.482843244434285 17.447785499401824 17.40392411905971 17.352575538630973 17.29370656182675 17.227395290977206 17.155334330619638 17.081542353544524 17.012132753341017 16.95452412925337 16.91653526433195 16.90553890602189 16.927623450518773 16.986713325560796 17.08371092157075 17.215760623697683 17.375701223983157 17.551827939183468 17.728288943981696 17.886586414823416 18.00842133204783 18.079442389243567 18.092699247356975 18.050354944812423 17.962815165345003 17.84560317465822 17.71529933498282 17.586032489919464 17.467353291850458 17.18101762175967 17.141248027350837 17.11838929205919 17.100407708437018 17.07595010811715 17.03895352491561 16.99217088187438 16.94767280695456 16.923491074578127 16.937329444849524 16.999651000979004 17.108751433252362 17.249671128608277 17.397491716307353 17.52419047310455 17.60706140051804 17.635995306327313 17.616986779823186 17.570337578568232 17.52392029961131 17.503794440305565 17.52553072374454 17.589293469161504 17.68021671881413 17.77358478169197 17.842639841214222 17.866112174002463 17.83300073638671 17.743475548186474 17.606431916683448 17.43546039551004 17.245250520723758 17.04968130435207 16.861608614639138 16.693415347275646 16.557221988783635 16.46415958021487 16.42279328823377 16.43722091528884 16.50546522325447 16.61869713549204 16.761712496100568 16.914902725545804 17.05759617021044 17.17212903564667 17.247578751660352 17.282053303762403 17.282851826839703 17.264461694398214 17.244905188979445 17.241258973729337 17.26534167024907 17.32067663936428 17.401729604275058 17.495848154953773 17.587339959280825 17.66220222456022 17.71174785513073 17.733965569661667 17.732541490449837 17.714429290281675 17.687234521350117 17.657422828941005 17.629721499421432 17.607404567171997 17.592737364946696 17.58690327621389 17.589248815991056 17.596394429272813 17.602188954712727 17.59923894546527 17.581857260026148 17.549294853157964 17.507735079528622 17.47002516448204 17.45313584502266 17.474188905690745 17.546138586015708 17.673971093623535 17.852070063668965 18.063458516132368 18.281724704862725 18.476034057622467 18.618482113597445 18.691611724170237 18.693164399566136 18.63583742140981 18.54190008947797 18.43494753482335 18.332433379981484 18.242076036582212 18.16309221116909 18.090761001737835 18.021454695260886 17.955592438049248 17.897518586021054 17.853011140474067 17.82607884806635 17.816649861107628 17.820030053894655 17.828143088988952 17.831913169659146 17.823838938494948 17.799859954990495 17.760021260816803 17.708037555084825 17.65029905185205 17.594834326374347 17.55031013195329 17.524771247549456 17.52396461959131 17.549707749893418 17.599266862657416 17.666497932599093 17.744533434445575 17.82869936494768 17.917942460860008 18.0137239691421 18.11677069444371 18.223449741891343 18.324025231213977 18.404280771542656 18.450247632473438 18.453966830326486 18.417403692803056 18.352404438256723 18.276556799997135 18.20682223647155 18.15368344382274 18.117962332068927 18.091044074034457 18.057959852888413 18.00215734055564 17.91068971657748 17.778607942728353 17.611423412980873 17.42480333892962 17.24134166066547 17.08519349523205 16.976184718109476 16.925301334602402 16.933022781413012 16.99089413064695 17.085439889718334 17.20259617092473 17.330788462596477 17.46169835139795 17.58914260665272 17.70748014458512 17.810941724190663 17.89432653154687 17.954373575803807 17.990628983853103 18.005083420026747 18.000811818019468 17.980546182025336 17.946075003067687 17.89872307400368 17.840465941119504 17.774938207345727 17.70776322031231 17.64599664952309 17.596778624231803 17.56549581473 17.55396568737488 17.55935044229718 17.574469210407635 17.589705910552773 17.595922236565727 17.587141363690893 17.56176238857528 17.52181962459094 17.470901877396944 17.412084317553212 17.347088959491558 17.27697335318555 17.20361665904803 17.13085892052009 17.064568003686993 17.01172024457612 16.979122644650023 16.972366279288998 16.995205148377714 17.049232848809623 17.133684089609254 17.24528988464203 17.378163384531618 17.52368491744449 17.670450024613007 17.804595007753147 17.91100084280358 17.975674593551222 17.988949567783784 17.9484024387348 17.86014363942048 17.737710765600088 17.598897447498352 17.46175840422176 17.341151354435905 17.246540434644192 17.079323751799546 17.0840035187119 17.10952011104144 17.140155176234284 17.16038348958064 17.159994403549135 17.138257250560674 17.105009562775308 17.077677437226914 17.075073786680967 17.110289274068503 17.185344787719277 17.289527728755527 17.402026232287394 17.498134688175057 17.557195991550216 17.569739280212445 17.541244621960132 17.490882236077066 17.445326163205344 17.429686395411405 17.45883290243847 17.532267215261342 17.634264114979914 17.738931647263183 17.81805217183015 17.848782132278238 17.818711017746146 17.727107014848347 17.582777592461447 17.400152128357952 17.195478385661012 16.984402356209216 16.781137711460772 16.598580270195136 16.448491796885605 16.341195880868288 16.28470729543424 16.283523032499655 16.337397752509162 16.44046583373199 16.581142867548657 16.743223640854243 16.908311336210847 17.05917605317124 17.183133948859055 17.274407317799497 17.334769756229015 17.372363044057185 17.39906051217452 17.42702336752893 17.465265267765087 17.517176920847795 17.57988662443438 17.64579522071318 17.705702550914985 17.75215440815053 17.781557230036107 17.794340788446448 17.793518192517123 17.782722466755864 17.764826984126366 17.74170960291866 17.7149968746185 17.687086259047476 17.661583804492086 17.64257410468748 17.63280150358125 17.631630272283996 17.63410535795724 17.632132577108155 17.617741922863615 17.587167221393543 17.543873068163524 17.499096450248416 17.46962555703022 17.473635944144398 17.525857884594885 17.63318928478636 17.79158239333214 17.984991787526322 18.187216113986974 18.367060111588962 18.49607743548033 18.556633623825412 18.547146707662066 18.48200089664304 18.385800966099556 18.284294688066165 18.19591122302868 18.127442454680033 18.07516413367237 18.02998535979488 17.98355748998862 17.932410718956042 17.878723673804064 17.8281793464573 17.78653206474501 17.756653051622912 17.7372037024161 17.72320739535195 17.708036149478485 17.685884027864315 17.653749248329525 17.612301390310115 17.565605171824252 17.520150883010174 17.483686402494584 17.463999615495787 17.467489969722106 17.497506669014637 17.552963321483617 17.628128033941042 17.714204039353053 17.80236223639371 17.886864149727074 17.966574328242174 18.043850982250905 18.12121698630101 18.19757541538698 18.266232530740854 18.316221355303405 18.336662288563065 18.322081421848853 18.27584460400681 18.20972993766286 18.139699294154862 18.079884579850066 18.037503646562705 18.010622747146392 17.989153876827555 17.95825495741996 17.902874864353198 17.81231075228325 17.683840081351914 17.52457653579699 17.350877843264065 17.185145955890402 17.050672169551465 16.96596599891492 16.940363862329885 16.97238904921335 17.05135719330857 17.161440202519803 17.286403918794615 17.413085054910727 17.532529490380323 17.63910513208962 17.72895060651308 17.799154689095573 17.84814167377987 17.87661870083369 17.887967142421573 17.88741406476217 17.880260283960844 17.870123588932177 17.85813068261783 17.843386094149484 17.824353170625535 17.800419472220618 17.77296170853052 17.745487739192942 17.72273712414443 17.708946378871676 17.705857686961973 17.711346312032944 17.71948376558474 17.72227143639756 17.712384948704624 17.685614852231808 17.641779597012107 17.583760085806812 17.51543569622427 17.43993167011417 17.359269257566876 17.275464119446184 17.19210392514045 17.115174907154017 17.052517422865524 17.01222480107485 17.000846685083598 17.022134144850728 17.076555446595815 17.161401255075265 17.271206949703775 17.398310410985005 17.533419200885177 17.666064780990364 17.78492500027663 17.878252505615396 17.934850249114355 17.94588350274881 17.90725078941432 17.821598115042136 17.69887806017484 17.554886442001045 17.408166959672474 17.276402637497903 17.173415685290134 17.107269715067407 17.065732047532883 17.104626247282802 17.16333171479821 17.22418572011718 17.2695310381913 17.2869505199906 17.273697122068185 17.238114282513635 17.196972185087933 17.16950370610091 17.170412760812912 17.204482983478158 17.2646579024529 17.334173331712666 17.39206644568069 17.420409255345525 17.410990626914362 17.36908096031339 17.31262342916907 17.266723176396237 17.255158724451057 17.2919634221721 17.376202411273844 17.491798775327517 17.61224191072504 17.708194656251806 17.75517442461804 17.738847281116016 17.656719087673572 17.51650077799291 17.332527347667465 17.121931496914776 16.901818110899026 16.68783236456024 16.493778934188853 16.331663104232277 16.211655334459984 16.141755620082566 16.12712776672496 16.169185254822377 16.2646634673632 16.405122028061733 16.577403527001216 16.765328821279954 16.95237021068142 17.124532142346162 17.2725370317485 17.39273022445217 17.486618461092046 17.559321420634507 17.617376348609756 17.666450820233873 17.70966323834102 17.747180225771924 17.77729436295702 17.79838466544023 17.810566265469024 17.815983460418057 17.817586638262657 17.817246707854785 17.81448275576367 17.806663626833867 17.790644641149704 17.76500354488121 17.731724521191172 17.696385859430205 17.66649796725119 17.648447084108703 17.644286845642238 17.649996253711883 17.65641040749195 17.65283159012055 17.631922897538942 17.593729749110118 17.54705888838694 17.50769315399836 17.49421188573309 17.5228222095751 17.60251875495224 17.731554149788966 17.89606599496062 18.071694727350874 18.228628281224974 18.339365637005546 18.38694281893276 18.370396710180792 18.304798537415035 18.21537107316051 18.12799545590057 18.060223823046737 18.016617607698596 17.98996731361881 17.967053737985236 17.93571270984048 17.88993794953573 17.831283905819486 17.766816203460408 17.70523842392455 17.653151488453478 17.61287179433573 17.58232941397428 17.556705880621063 17.530898029219788 17.501742924024885 17.469238308309432 17.436579593159344 17.409349831748372 17.39432353715996 17.39809941456215 17.425538846870467 17.478118480246437 17.552745069469392 17.641851215247033 17.73524830113708 17.823302149280437 17.900075110140047 17.964810042573546 18.020811431279537 18.072126801057806 18.119738472760037 18.15946780297518 18.183053137605032 18.1821411027629 18.153151572781262 18.100265966452852 18.034711939859868 17.970571961489938 17.919221514427065 17.885037808469765 17.86404921335013 17.84558686674864 17.815846266398918 17.76202939842268 17.67608819118783 17.557444745998275 17.414174567832823 17.262197429772627 17.12232763433374 17.015657197903572 16.958445034228053 16.95809088392645 17.01159211844077 17.10705729560844 17.22764710509639 17.356286666432702 17.479244939924 17.587441380852745 17.675700856875988 17.741257621940434 17.78289638256829 17.801236106078278 17.799550374508065 17.78402424838954 17.762763588546125 17.74378014088394 17.73286705189534 17.73232834741698 17.741026673924797 17.755578117166596 17.772104670637813 17.787844622358655 17.80202574438619 17.815647120647583 17.830202255021433 17.84588031354893 17.86018612608978 17.867882500019427 17.862522787136335 17.838891228416507 17.795026265756483 17.732679161587278 17.656022451890866 17.569550265283947 17.476617053040744 17.379564628134325 17.281230800874706 17.186650331429874 17.10364690842282 17.04179312968892 17.010244473609188 17.01549444262343 17.059902964402397 17.141259462373164 17.253173509877485 17.38596748172653 17.527830162213398 17.666045101004162 17.788098948607878 17.882545622123114 17.939718011788734 17.95257450289914 17.917886363656756 17.83756319968429 17.719463181896476 17.576961890608857 17.427031322168165 17.28732773704824 17.17325431658336 17.095794110586095 17.060275703760837 17.1318103498382 17.19325591616601 17.26861256223847 17.34003761723095 17.389896857647877 17.40569266699497 17.384329686967916 17.33355358285434 17.26950121670888 17.21111248292657 17.173582191332695 17.163327194642143 17.176159298152474 17.199105873664482 17.215201624131076 17.209798456221318 17.17647082735225 17.12049049711955 17.058345036243704 17.013006470174194 17.006305089511354 17.051087571281606 17.14609546405963 17.2754601163775 17.412852986745232 17.528564897114702 17.596907521309642 17.60159807731125 17.537896509802767 17.411604505413038 17.23603317958705 17.028388106806986 16.80672941640747 16.588033954529312 16.38729480954051 16.21728449540749 16.08857898984689 16.00953008158744 15.985966565464217 16.020533125597836 16.111816099865184 16.25369447259355 16.435465511715034 16.64304440464967 16.861018208405046 17.074896632770866 17.272859785218085 17.446643421897093 17.591610074064945 17.706241485601865 17.791273212022343 17.848709988366068 17.88109923399583 17.891466611958723 17.883952246091507 17.864542075823824 17.840918502012645 17.820849737984094 17.809570689842687 17.80753386688521 17.809976577817796 17.80885123949654 17.796400836599528 17.768819465342588 17.72840911201538 17.683285153061135 17.644616447853053 17.622309904317458 17.620753736006296 17.636450955699175 17.65882418805743 17.674174841417923 17.67128590939874 17.646315352098284 17.60496651946048 17.56121294996612 17.533272432237588 17.538302752433083 17.587278481633028 17.681148258832117 17.80915543867704 17.95013665215395 18.077224554414695 18.165291081883808 18.198951516659548 18.177948080338503 18.11720852914135 18.041001697567875 17.97343174503565 17.929425589908934 17.91016880557535 17.90468370677507 17.896230711604534 17.870145076232365 17.819577866415933 17.74715329866322 17.662681577171757 17.57863519694255 17.505563577745647 17.449126690347335 17.40946228964486 17.38263002784338 17.363197238743687 17.34680600495915 17.331821235422517 17.319739814332713 17.314590548983386 17.32175764544872 17.3465136874703 17.392374452270232 17.459498207645037 17.543686848839762 17.63669884730745 17.728204344741165 17.80888059267156 17.873357930986504 17.92153865563037 17.95745631638219 17.98607593301953 18.009638201731583 18.025615445828908 18.02765552890369 18.009252284414984 17.96818191786521 17.909092433468953 17.84257937054671 17.781103378085845 17.733887050538875 17.70332724383502 17.684368080306935 17.666625833790107 17.637964266995624 17.588137700638047 17.511667264216108 17.4096296306806 17.290191416093357 17.16767616983221 17.060045821126053 16.985077515499885 16.95608622903085 16.97846773517527 17.04830559803973 17.15366161496849 17.278113364990627 17.40510293736499 17.521326142281207 17.618027904417996 17.690344516910077 17.735907622156084 17.754064702466213 17.746245442359516 17.716906316406227 17.67394930125957 17.62784905134569 17.589572701908676 17.568091386991846 17.568455760162045 17.5910778986894 17.632333674825382 17.68614571248535 17.745929912807593 17.806192602816672 17.863181786137666 17.91438225766211 17.957239728655704 17.988011862970364 18.001675161517028 17.993199315483913 17.959553561513342 17.901194917009246 17.822017941909788 17.727738186459323 17.623762476467903 17.513977415015944 17.401252999904923 17.289244029722695 17.184151111848646 17.095125415312168 17.0328952856427 17.00725719612839 17.024576019653267 17.086183285079244 17.187933675875417 17.32070847009894 17.47155111783226 17.625214717327935 17.765942591776465 17.879245397432733 17.95342537411057 17.98072796271719 17.958169992246184 17.888105221283528 17.778392743648187 17.641830179795587 17.494581237953675 17.353739588246203 17.234666595935074 17.14890364884055 17.10309002702055 17.09866999471064 17.25492808322118 17.3286045323215