# vtk DataFile Version 2.0
Really cool data
ASCII
DATASET STRUCTURED_POINTS
DIMENSIONS 200 200 1
ORIGIN 0 0 0
SPACING 1 1 1
POINT_DATA 40000
SCALARS temperature double 1
LOOKUP_TABLE default
19.172082434671967 18.062046985295638 16.99791722237716 16.527300207837715 16.395590507945027 16.014361542414544 15.228983955081196 14.445798434118187 14.33197697038235 14.964007690005609 15.587653647466668 15.912241335560712 16.327867886665786 17.326683649846544 18.276805488580532 18.22118480675212 17.342183248102423 16.434509245673716 16.149855419181645 16.379329289245476 16.384473754986075 15.95239300455465 15.685956345068153 15.9157604895604 16.44619209166214 17.182720029976103 17.722179225211573 17.42712908344542 16.51426837558886 16.092278942614026 16.720239660154867 17.703966520132695 17.93031973775214 17.198266799489563 16.262494177518906 15.698084866293389 15.360728958537777 15.184015866154157 15.23193039901778 15.733115422490764 16.81063383860552 18.006456277974593 18.809972969307495 19.202614725860826 19.384904740851912 19.136178798774154 18.29556505147908 17.255710365513654 16.342494586263438 15.526631826933174 14.816322705659392 14.37533375633178 14.36114958160216 14.941845014463542 15.823352921942826 16.419214609740422 16.586819233599353 16.58917484377099 16.53665448867302 16.386534207176528 16.322055726746562 16.41819349045031 16.452608709043826 16.15064848412826 15.772655759299598 15.74072546342476 16.20147144877396 17.02208780822477 17.519179531294416 17.500747722338307 17.16891793585726 16.90229928751023 16.813767396692338 17.126523178448988 17.78578817318931 18.1721168775906 18.088457346902445 17.75604038103774 17.52700914478261 17.568843467880924 18.0140775769509 18.910452905516145 19.625825169782644 19.92450975325411 20.10735785313455 20.29344778319451 20.329421162308087 20.26010049243516 20.277307809921773 20.40169450025024 20.28118437434115 19.964169806672245 19.46875558954357 18.647568988765272 17.457612899325248 16.367043230420425 16.076974825353755 16.367229606608877 16.644975423513205 17.092169425429137 17.82260061244838 18.672358811232584 19.42230646373482 19.54974444089005 19.17398734647772 18.95184623287444 19.183068666778084 19.56257641704579 19.374651154803498 18.328496695614447 16.9759600421829 16.091236429767918 15.990661058774393 16.2359332460988 16.238417647688447 16.124400823800062 16.204911926208066 16.42373954927544 16.752156700891305 17.22323572924386 17.861850580658917 18.464599459233423 19.051238826309227 19.6631413915093 19.732364184115195 19.04951695174111 18.216811029662868 17.620053754081706 17.453110318625455 17.39974763128048 17.228433698773404 17.432066755773732 18.075547582993035 18.69762315080821 18.77302565833708 18.294694085201474 17.659624786018714 17.072147692729985 16.39777058205218 16.031526201452195 16.1674589355261 16.358931062101323 16.493338119060873 16.458774175059947 16.319954233926488 16.13175925588693 16.092596689181384 16.204629532598336 16.732407571023966 17.875179540255346 19.23119349633252 19.93943849889829 19.799997767746856 19.342371494646194 18.81402299414858 18.358191638003557 17.856526654212455 17.026154444774495 16.046999770653507 15.371873371772928 15.316753281596483 15.816854212213986 16.358374408237896 16.688048301589806 16.96181582394692 17.393327971420778 17.839644172960718 18.226292854153073 18.339931274906128 17.89215901662518 17.071961789263444 16.337833718322 16.16622805562239 16.754997874964914 17.67705206967153 18.382623441749253 18.587290509748527 18.16029389687852 17.571731834691505 17.262808287887445 17.176019750904395 16.842069654751924 16.16251811176583 15.535935743237705 15.146376978497509 14.95798564425732 14.942095221595983 15.232404372003497 15.867001729584322 16.73714375509013 17.746791656318347 18.683631576879105 19.392917630144936 19.933573692745682 20.145614272612143 20.092618717237254 20.188758702381048 20.215311717828893 20.041861574600688 19.7741358119237 18.75148932231483 17.739756716790122 16.714647279180348 16.117112196453576 15.950428285424975 15.600927356714848 14.824112198423501 14.215837660521668 14.343415943185024 15.027285917187498 15.50110087341228 15.69232694302128 16.19269604044382 17.436107003888296 18.652973896828765 18.724471646368333 17.907913278017112 17.131117032685154 17.036033308153474 17.402685964670678 17.371460355641954 16.896990618786074 16.68405747425629 16.980951243421273 17.51928442023214 18.218490773929688 18.579502331518427 17.97042497306144 16.810953553866742 16.365336660318192 17.029293188195815 17.91313487260171 17.966297190573396 17.0741013278751 16.00395125588176 15.455105860869551 15.35071902791544 15.528236309807356 15.835983735541708 16.373174764634566 17.321360389975833 18.38126983319549 19.14604252085325 19.49114430326266 19.527806065012317 19.14017714192827 18.19014329612029 16.95239873896728 15.830371924478895 14.944974558033575 14.289503919313782 13.997675153606076 14.270036321455043 15.11902438700433 16.10318411483003 16.837485070912788 17.39329435952765 17.79545190805087 17.80875743550752 17.31380589693423 16.781367695614275 16.554616807737215 16.462895685651905 16.24282768629669 16.081848959213687 16.238262064808595 16.61550326166264 17.002407513451182 17.159924342456243 17.223119724660922 17.190144783052105 17.035087706319253 16.74131752373036 16.85322811418511 17.441060064592392 17.805449508907905 17.809387254144625 17.674440923418828 17.487498742653077 17.315437502815715 17.651135527280747 18.753194284940985 19.906690524633554 20.644018108760008 20.928687228191627 20.73816407920601 20.147190391096746 19.568645533020387 19.384125889569585 19.668185079054368 19.96803058809368 19.967764301999555 19.394112919644336 18.28558566740591 16.999420577275174 16.02861772070323 15.908155314271106 16.256941221404357 16.445675660203698 16.656038081861208 17.144111886853324 17.93067225135805 18.77101623153667 19.028238462643376 18.722524373787753 18.47970062390136 18.56239650080184 18.747004848776864 18.541776921971785 17.61864634593373 16.36986201319871 15.573682841220908 15.731670214010608 16.420891269701542 16.79549106407138 16.865501029471343 16.980097523758307 17.008304352043258 16.981208178845836 17.199753978425896 17.77089679000136 18.40261043203303 18.98794325585136 19.558796330471047 19.564737020285747 18.7728197267498 17.900874115636242 17.406399564154064 17.29608192806258 17.23075428181529 17.16113845984833 17.60862967183419 18.546547881441203 19.402230151796623 19.42823763403206 18.55533080122209 17.448347610275995 16.55894178053331 15.871745581107263 15.63683247252502 15.781172389187637 15.85290466619527 15.87206451058363 15.909558202890286 15.97363346537019 15.996555174849384 16.173634028767545 16.33582232334116 16.575941460608778 17.370110725294932 18.53112327740594 19.18711398271749 19.044072216094218 18.592426252502328 18.16114049685642 18.025465039452445 17.89396954492639 17.24808012319289 16.30488543224227 15.644490881976798 15.58241663290301 15.970898400547723 16.25794552029467 16.341841697914994 16.497631813297048 16.888404269140363 17.332233093687876 17.821320794209704 18.200931372917875 18.067180295199105 17.41238998495084 16.42134074319552 15.685538144527817 15.847206328125917 16.572753261407755 17.214258138471525 17.523218366485363 17.40652561577006 17.17944820609736 17.06629306042005 17.031613363663677 16.64721963604995 15.936660625865722 15.488357639745882 15.342490929658807 15.275956363981736 15.26405995012369 15.560526170844517 16.190753832302267 16.818593721840596 17.43199087771215 18.114559715349444 18.821635831561704 19.441253655060844 19.62879814829118 19.404036725209476 19.315326469291833 19.32188020789015 19.305541642013022 19.23506663660267 18.086185074154734 17.449542139188768 16.717333958848286 16.263945167399484 16.300681846665338 16.120918716240215 15.326193133373744 14.617569417598407 14.563970050115621 15.052989143150938 15.454684484190976 15.688402278150031 16.296942411337618 17.62125153540613 18.961860675332993 19.235949340941424 18.642280675009218 17.93999700825332 17.697673919579213 17.85554774504683 17.72467653135604 17.453371290128167 17.589488106876072 18.108095095854104 18.655854850408474 19.18990245185033 19.300552784938763 18.512787668000712 17.355863378844532 16.962777697154422 17.501374353854622 18.10675407240297 18.021602019219007 17.282168405851543 16.477451526901937 16.102001764871602 16.07267962461896 16.3188759099845 16.673164850186502 17.10359036714123 17.76432145802085 18.484428637384806 19.028887088722396 19.33162354474581 19.365529572406714 18.91067433945098 17.895830319789095 16.63951138608429 15.626469555847635 14.956410806509329 14.489368062850074 14.371037544013861 14.91256184819622 15.983128041221683 17.017868583326226 17.840298892802938 18.66501120299934 19.294495068477634 19.32996818209745 18.604314768668385 17.617862994938157 16.946211726028857 16.68420393955066 16.597975047082553 16.64310182640135 16.872322225245682 17.078205804654697 17.10900508012607 17.18875635499451 17.578510157426095 17.928511080947516 17.800757717561066 17.115284251332096 16.63205107639945 16.669599235825352 16.830993102100667 17.06085115932392 17.33951404907062 17.416529123031232 17.312205467521153 17.68551855372587 18.848522490866088 20.142575128794565 21.054568303068603 21.29202695706891 20.67061373877322 19.499861628964165 18.510223213732402 18.17194580169803 18.594978024113548 19.224473459492224 19.431995634733614 18.858458513340324 17.734213029244632 16.624483209975388 16.02323956700185 16.284887918395246 16.88635013990409 17.13656298850525 17.144500906658966 17.33484363871801 17.876789955285417 18.487737645280152 18.504925861198245 17.98930608912737 17.63440469859379 17.626128694285708 17.701118568700604 17.61418367672194 17.176011503251814 16.500579637638754 16.052681504315906 16.3612449179206 17.201582905802447 17.72452579947701 17.82435398382098 17.866233923874358 17.751774032001638 17.560459854944018 17.712226275191806 18.34607265812567 19.114894126207226 19.788345453340945 20.296786255723422 20.13875408744126 19.12674759204958 18.05952946706023 17.546878116568163 17.501361560898562 17.52211955669286 17.59691535441012 18.15662688775922 19.12250460303044 19.936702833667685 19.83102710704672 18.751298677013143 17.47316543037288 16.52416166893427 15.90074961241339 15.688495581741979 15.774867967746482 15.78779030363275 15.828099251264437 16.039547812562542 16.25613413220852 16.29203008410557 16.488953282034952 16.693649633722483 16.708076583827072 17.08712255562316 17.88990120175201 18.322381528626394 18.12795442661611 17.907497618600132 17.992675174477387 18.480973709714515 18.849345810218697 18.46994735093342 17.568218609482546 16.761596929632343 16.381984256120003 16.269030056995174 16.066579149667927 15.857490026333505 15.93921681198169 16.34974314668314 16.76241440200718 17.17945173114654 17.655514646117318 17.90900400109113 17.683499421923436 16.80172906710305 15.84570495222785 15.724287754095503 16.182622156663324 16.502551942682775 16.632784790909735 16.72250455143366 16.86858026694305 16.92635934191752 16.879600652562978 16.490652398928063 15.86001098100118 15.655404716143805 15.867394023250766 16.105055891239672 16.193386905850144 16.40797328511893 16.85864323110542 17.1961953561214 17.531557088819397 18.135247073906584 18.882995949929494 19.381202158798942 19.21818238304436 18.573298843427683 18.19450311913987 18.157841065394198 18.23274709784738 18.30837076373415 16.82213758474205 16.777573208419653 16.61562008500323 16.609190446626492 17.07932549638309 17.267275203352995 16.634022554412876 15.779727333534746 15.3140448230511 15.44212816720703 15.765101430280872 16.068552925664527 16.642538818051133 17.82625676246891 19.22550280179946 19.822281493631518 19.509987950701206 18.711400402538295 18.009655437163424 17.720636690462886 17.532929851336167 17.68888748156407 18.30078867408672 18.960721522989974 19.363782150602898 19.635378532335682 19.535802405354172 18.717738517177438 17.682764028165423 17.300308822345038 17.610235283784696 17.944280322652517 17.850347859440404 17.413660776558586 16.955763836014636 16.68178538999303 16.55580476197503 16.647603642557282 16.86487658361734 17.112393571814376 17.490309313371473 17.86072693520454 18.216488273335326 18.63819517624942 18.900738336510546 18.555722686714386 17.657284498953434 16.677627972443215 16.11083307129096 15.818915167608417 15.469507008007886 15.32008843766662 15.876910631970096 16.964659712399126 17.987607297778776 18.83592675741488 19.69763021745403 20.26584229983878 20.25887274360156 19.55367351790055 18.425032490420328 17.465293370045995 17.08768888005283 17.11622652759419 17.25424676615598 17.404018187504878 17.37133168998629 17.08747471663773 17.12194376630375 17.828382269066015 18.56734499947464 18.547294071626244 17.636423622610796 16.60648523210421 15.945231112070825 15.778259727900107 16.17086011749187 16.767219804457966 17.092885663000832 17.25143048473963 17.89276218731508 19.153530847647673 20.401676404694893 21.238234978515194 21.358189402430344 20.48072248419391 19.030735798850635 17.868580514535267 17.412580995748012 17.771052319941504 18.329078168299937 18.430422609512895 17.959291739740387 17.248221547729354 16.66825712825976 16.527053037678794 17.052822471330984 17.813428066259927 18.182592003689226 18.124242800329032 18.068632989615942 18.213750104653712 18.339565397086695 17.948357820745013 17.174610133585777 16.685398795972677 16.641866062403924 16.727288509222003 16.76984779437202 16.806366837316844 16.800597617004204 16.80697731149711 17.25998490297987 18.124950787200312 18.621711304053147 18.60963080330452 18.513816308069345 18.3611411964012 18.25670490270397 18.560565959181137 19.33991324096743 20.218043154155556 20.90224360942651 21.14598001864837 20.593353555016442 19.301938407169096 18.16743663865531 17.802327392467692 17.913216484051304 17.999695853178334 18.098103056663373 18.592294569414605 19.37495477785068 19.9429941046546 19.68393492438138 18.61331625059537 17.48652396803747 16.748471745454793 16.278707423557467 16.051444927554343 16.116743973347678 16.24686691421622 16.512146023977092 16.954109686214775 17.18255052498757 17.013430855701927 17.020546336689442 17.24532381516082 17.254325759767788 17.35785142815307 17.719875797932733 17.80356839438215 17.52324984713469 17.543347963996535 18.10893051466755 19.044703484842206 19.77241584058661 19.738198604654364 19.087251024847845 18.28137941212797 17.649398962608213 17.09761639051284 16.497701946115537 15.959888133739733 15.761589749936709 15.98326087466102 16.244922333945844 16.508892270869325 16.971769209726748 17.52566667079438 17.731357760864984 17.179650143000423 16.3869060053707 16.277499983263812 16.579773318453338 16.510066198235293 16.262180997189542 16.332111278347302 16.734066364010122 17.063592556254125 17.164192209211436 16.87917789047711 16.3810797158923 16.284797584196596 16.57668207803238 16.90150996917781 16.994518842715326 17.031578993285148 17.189468085710768 17.33093152096356 17.709334146812473 18.49866012690234 19.280300967658768 19.426923328340315 18.69232079837737 17.545511993601227 16.87652550702366 16.72002204070965 16.701520885767497 16.752983602526694 15.2799756982157 15.698996895886035 16.218856342562283 16.895752108049912 17.919794568770133 18.51060390403923 18.120189346581157 17.213345585714894 16.458974071056694 16.353862773084444 16.633411868763705 16.907441133438784 17.227328915534265 18.072151248661996 19.44497273829211 20.383151933353737 20.38639478877026 19.50576913316486 18.322749855251416 17.534106500548322 17.27184335140404 17.820770670666256 18.859935994241525 19.59748069597709 19.800134154912268 19.842146185163553 19.677217575890097 18.96246920957523 17.990186754068954 17.429119313737374 17.404533027704236 17.46685642728158 17.347233437811134 17.12573308700645 16.9204407723135 16.687878995066974 16.479018760300956 16.4235066325185 16.457417048572466 16.48962173159388 16.582344202176092 16.656929110041858 16.951666823144752 17.615370312830724 18.177382827067994 18.05735342498682 17.48329311917147 17.041957653645376 17.07260206996843 17.081131800072008 16.63852201233777 16.205339687614224 16.4824822824977 17.367055599246147 18.35954257297668 19.27405360992931 20.02280009799926 20.276695539316826 20.06755446793789 19.46426745870469 18.51310076690833 17.61024866265052 17.359127042144067 17.661786172681854 17.989907584927675 18.085241086598185 17.775014292093495 17.1034505579937 16.88825864048063 17.637192401003755 18.602712016219392 18.756209316226336 17.959027031951464 16.884295421290197 15.916435807777138 15.518348045965455 15.878154502798315 16.43844110312907 16.710310358407376 16.959033590102695 17.77443218340588 19.08608178944446 20.278965323991084 21.058999816557503 21.18243003082185 20.294520957029718 18.794572107484072 17.550892038751794 16.962659714193148 17.140424163983468 17.465147614824502 17.450996913003905 17.28903573859319 17.27771539105641 17.395696859637734 17.629530182682785 18.085453713129883 18.60177168273277 18.908827457809092 18.891122101720892 18.777122508157245 18.62196764830083 18.302379619267068 17.635025403070856 16.847562176748227 16.405700683608043 16.414792503868874 16.518642866198462 16.429932930654754 16.43111132465426 16.69316788273468 17.05046244307482 17.74972444061644 18.68526247403089 19.080714799154045 18.90985982758182 18.697718304912037 18.55190680936664 18.56293814456855 18.953273496298113 19.73670719226337 20.601949445049804 21.20528188609616 21.063514878149412 20.041638974534724 18.587896345840214 17.71564202043018 17.83168438101838 18.30125268211769 18.475037483642218 18.51452691635342 18.852045349778603 19.35343343059223 19.607341744634923 19.29594835797829 18.45543765990816 17.633291708213438 17.089164416228016 16.63106034125912 16.30125409821811 16.36058964515341 16.705929896976592 17.307531214090442 17.993228668802207 18.199832888818698 17.831900683737423 17.634366441190128 17.91019124988091 18.14719103678247 18.20427583508093 18.142865592226837 17.780646562469645 17.3312891954981 17.40033639847613 18.03840248045375 18.95009443614287 19.745194541372275 20.049732056807745 19.868716046862446 19.401195275555224 18.917678886439724 18.38723928622038 17.720659496613738 16.905346550891878 16.275228088156013 16.13442105634933 16.173538033391885 16.320900787611315 16.752100210929175 17.41210868788066 17.81453823922953 17.526122247525212 17.004308965661508 17.053574975832525 17.353305079092674 17.041102272555335 16.394543697258577 16.16455906819711 16.477977793028206 17.007780333365915 17.423383412293568 17.409904642481507 17.144552190090845 17.100581565663372 17.280160117366066 17.540108491275696 17.641448228709333 17.53689237708793 17.403432185140627 17.41150579963219 17.916396279721646 18.8379096775115 19.49849408852965 19.21180291259434 17.990602296417684 16.499163042116933 15.617983964579683 15.346263280041692 15.225607652663685 15.132276188190469 14.341283744819552 14.87038358263153 15.856088726167831 17.151563718710772 18.632319479145973 19.4783383103758 19.272800631979006 18.40725831402291 17.532912597440756 17.280462110998894 17.46240600740813 17.584761497107653 17.592905786929453 18.103377694032886 19.387492856487103 20.579410216631963 20.931591350241504 20.181057075792292 18.78526653263218 17.632631222155435 17.21905844983081 17.844562290313633 18.980588511879052 19.689654624924707 19.79414612268683 19.827290061090952 19.865578889308733 19.49789378508039 18.68032763318945 17.880755692392384 17.432450915971323 17.15868203392596 16.90669661936498 16.70899009608721 16.56346780760987 16.317748118416105 16.15428207772973 16.17321928298467 16.171461425727475 16.007024649951372 15.708466739256236 15.412698511587063 15.655526430392534 16.53652405981377 17.329619448673647 17.46062471310358 17.288353477481035 17.395396444633153 17.911836082944802 18.08503749928868 17.490092584823845 16.768897147620798 16.737778188235463 17.384642260122597 18.279222311426796 19.123514618205803 19.53147130987234 19.316600627484483 18.871869877887676 18.479647855751484 18.00385084013838 17.455151700372596 17.428344593137016 18.024336435841125 18.657559439819472 18.92317756460897 18.5162537051062 17.523673322190568 16.877865656069613 17.290438676726914 18.188789007307665 18.498452778049824 18.057577071058766 17.378464033112714 16.566758566478704 16.102747060809428 16.28095189721173 16.578725550317227 16.59954003747485 16.632726105580755 17.248381062661206 18.407284961721114 19.582138466445954 20.464203873690526 20.72541125094522 19.968013310030223 18.52765042127065 17.215796788369463 16.53037714997154 16.651736748246147 17.040383678543158 17.29049783905192 17.58130959246238 18.065027820402076 18.535572591663215 18.823893197932392 18.935990010894017 18.932379308118982 19.022622526173983 19.106300941573117 19.132365704827716 18.937441325904977 18.438730602848764 17.73293090949391 17.172285425651662 16.98320582868774 17.1627999253593 17.278030954060117 16.871243651266912 16.44550452183365 16.565223181101224 17.034726937056497 17.905565715634715 18.8385973622421 19.073697098524224 18.82157477414528 18.657486412704618 18.61984563685165 18.650653492061902 18.8350378032791 19.32942695288798 20.038868678562235 20.53773665157203 20.091456067706112 18.773780372872242 17.381092403216005 16.97026812645384 17.65557222939227 18.502664060156338 18.73881924896526 18.673214932010282 18.835994580699534 19.046567651281478 19.0187590748123 18.80752665707985 18.39311867701224 17.87569782889273 17.320041392330086 16.68736897238097 16.22293012577475 16.2791720056738 16.76768501591264 17.605150801686808 18.474627403854882 18.744984298866388 18.350877370378743 18.062399417707642 18.37130359720936 18.8304535672627 18.955048741146744 18.612851955673605 17.87969047490205 17.252608436458573 17.222764543467846 17.595158760423267 18.13637181912038 18.744018588482863 19.24579292177182 19.55463420602335 19.637089079346072 19.59468874895867 19.38644369205873 18.887645428750456 18.01596556708706 17.217181592442408 16.969207718257312 16.999145986366386 17.11868954046898 17.420897334851382 17.885995832966714 18.15094342667871 17.922049923817806 17.607901207623463 17.802508205218686 18.153519902016438 17.829294275998823 16.976440522963866 16.328658040275943 16.208553674215526 16.650395457987965 17.291436145436947 17.556313438521077 17.53640349864551 17.571550081168496 17.73888795310461 18.11207151251993 18.447099885692484 18.385051284821984 18.02378897908233 17.819324978487163 18.231017978296787 19.020690332893096 19.445922536179513 18.897709454845916 17.522640274174417 15.958608622970097 14.962947700870389 14.64647467300054 14.550963240408718 14.333575712627626 14.50227527006798 14.774158898274006 15.734657030331263 17.233144619347012 18.865985732085914 19.777172434649145 19.69558211204265 18.92597313926876 17.96323494496051 17.4977154140505 17.540100960849475 17.573564816684545 17.40147401289388 17.60797563000801 18.623452932119143 19.844427431222986 20.51022643298268 20.099554572734892 18.80466562915599 17.475542897634195 16.879053675671887 17.33152184128833 18.346538025957894 19.09896672543139 19.38202757909121 19.623262209306684 19.90789587586733 19.869715759931324 19.268621907339128 18.298902836531827 17.401976432229294 16.795896662327497 16.484414174274924 16.318541069308697 16.13717715600978 15.894323185609066 15.923252297060825 16.16962356449911 16.21759371822871 15.90098426795155 15.247755265796599 14.638289855651598 14.824948070095571 15.797677365613662 16.72107124393438 17.128936767418484 17.304552549397396 17.67513684299412 18.343197612420603 18.58631420014185 18.006491410006255 17.287891412122303 17.235420809945136 17.76506835169233 18.349426029286004 18.682853494068404 18.426882909750713 17.726972205995047 17.192069803679402 17.210893045998183 17.483062716327648 17.563180712832274 17.80840193992872 18.44692827026343 19.07098570608023 19.40488449287347 19.061156570938515 18.03898173075791 17.142155520518692 17.187166081095018 17.93223053128055 18.411876213480955 18.361498168390668 18.09107336500082 17.521664624988297 17.02090639861928 16.988227389618928 17.102661388348285 17.018255843436087 16.80471158906256 16.98109813665394 17.749625967090317 18.77194390153305 19.725979049186893 20.12867192824214 19.54529724283235 18.22598521805975 16.914244334119047 16.283190895564182 16.583529350798454 17.317031504802582 17.968358508109098 18.476835193555004 18.896698275464757 19.191708187730754 19.31698812392865 19.162805057118863 18.75897420983008 18.595188840684393 18.68390981894114 18.889603336451767 18.900662683431964 18.52543181303792 17.933340725027413 17.561565514184746 17.539161886904658 17.871267286185578 18.042974095368876 17.476975164185067 16.80003133185705 16.796288602565944 17.22627705992934 18.040713089212865 18.840703751195512 19.003970078496184 18.858817709369706 18.814700889641706 18.778384587762876 18.571132305019397 18.2826937549688 18.35860270335438 18.90977412873333 19.401998113065215 18.92033956385324 17.65121813012865 16.58298743185327 16.654693746886934 17.674203133956258 18.591056734794552 18.692227416291036 18.453432226750426 18.48438070905175 18.504992395791906 18.30786608082456 18.237484776309195 18.192181760430817 17.805808062191733 17.115866553744205 16.360539748723053 15.845724083499052 15.869974209558194 16.355977281868782 17.312197330249276 18.377382875290305 18.828316585935706 18.48161598459268 18.12107803956518 18.376101681044997 18.893425556088257 19.08825634495265 18.73867480377949 17.96852639525749 17.30397529692756 17.13583365185881 17.171063559340254 17.291682393815353 17.60014713309769 18.110309145757252 18.709832322791257 19.227383675021564 19.519761316432913 19.51866137479426 19.228406117910968 18.569862156798926 17.992936959406933 18.019780197933002 18.355504971238144 18.528834732960586 18.51701272315819 18.483021154395363 18.38391407968134 18.148401677058068 18.069877619049482 18.4354446924188 18.85700141452069 18.691785873113037 17.89987580230334 16.987601400067458 16.38753088574162 16.473971703821096 16.979172715954615 17.251282690165272 17.373429352516602 17.579767151202834 17.943901542524614 18.537711864255044 19.052952779816316 19.01313479914522 18.53203998262701 18.215879836604216 18.47460729241493 18.980981706703346 19.109354973517316 18.511951902404487 17.39121915260443 16.125601984096356 15.217528432569566 14.959810562666535 14.981088605155483 14.720147962411584 15.434258778764782 15.303823189952233 15.895068637389905 17.137098746798316 18.522090694699955 19.312349250987126 19.342220822970486 18.740046871724804 17.756995728965382 17.108145197945394 17.129810831199137 17.334508189168034 17.21823145974442 17.122453673925975 17.585263038876445 18.420733831037634 19.096624205622696 18.992077094524532 17.997440206101885 16.67460725860556 15.914951937876943 16.122108049430977 17.029833244564024 17.97385260017843 18.570261129187454 18.985251808747876 19.33895555071327 19.444815558816945 19.090914465812883 18.234227173305918 17.218419147644845 16.543856117530368 16.346150629404743 16.22581469683049 15.884539749094898 15.561755325867985 15.699933461679748 16.01730505757173 15.996484970933539 15.585197831520398 14.896759894014929 14.361866836354546 14.648852776562926 15.588674124833448 16.479969767680753 17.102112746921073 17.51746792846435 17.905447232531564 18.516291376482002 18.859745991180834 18.491861669920283 17.957888486417573 18.03553805495099 18.507940371055533 18.65289826523472 18.22296107414748 17.23563307576809 16.2138188075758 15.759425415988131 16.23702346731778 17.254662172681044 18.032390096208935 18.58976775035914 19.013531130307612 19.15909235840214 19.16813208972087 18.830712552620618 18.01971981360922 17.25118438651942 17.264953575670642 18.035475289121127 18.71042360205542 18.935391856522237 18.83202250340308 18.281066551386044 17.56930414866946 17.260900355886314 17.31926088281457 17.366059912136155 17.12552864223708 16.99342728987013 17.41472516490985 18.23927759068854 19.1827950752541 19.74018561623383 19.412095400023386 18.247098722589907 16.935672310035205 16.362313863951716 16.815325176329214 17.77778314824126 18.592894189292295 19.00161367344736 19.03403509354643 18.898968658840328 18.811069266419974 18.612833574699394 18.12432369095493 17.795176012694803 17.76044214794251 18.003309901318485 18.261377126324614 18.214124055633032 17.830329854475387 17.42732946296457 17.26294490715869 17.615631959223503 17.962177530100515 17.586316491328006 17.058232335376182 17.12461664437745 17.448017123700964 18.014162931432754 18.643433826188723 18.919433632720185 19.01026703630807 18.964565493022604 18.65758976312569 18.01866400473757 17.286111430214223 17.10753995037438 17.646779430529545 18.277545468611635 18.04507653103761 17.099403165820505 16.437329609619926 16.816547320286762 17.847392488101388 18.550196913963394 18.40109389298997 17.987739545625058 17.95174524573675 17.92109739964743 17.681483729986343 17.668231977584256 17.72532658259859 17.268021822956158 16.465181129393173 15.757435955582578 15.332918176149994 15.386967373011432 15.877420759715848 16.908920538414677 18.128912346309928 18.708433285691655 18.304343173560383 17.80132877850293 17.966473480977374 18.465948922605843 18.689274534211155 18.462572562171545 17.890079513831697 17.344155900118114 17.124487677262785 17.003461949069646 16.914338647276438 17.026571029902886 17.45380509277826 18.062099990853596 18.66196269520152 18.970693301773423 18.95529693792254 18.84769674694976 18.50327247991409 18.267337034177114 18.69993610925501 19.48319210538853 19.77294785495055 19.352559662737598 18.661432369435268 18.05727188584573 17.761491798921416 17.97539500987871 18.604224243196768 19.105574957395515 19.08287771099988 18.4855734203676 17.602032870011865 16.800581329124256 16.546382771150334 16.74683398369123 16.934791886047975 17.20027509560799 17.58749767377647 18.075635490629086 18.634790126557036 18.995271744273403 18.8563996150151 18.452220998061645 18.281653627018528 18.46548548641603 18.60470942555814 18.375926403954573 17.859905281771038 17.31093095305949 16.698961182882183 16.129296745151695 16.005551071572366 16.128512178363714 15.860850057900482 16.452