# vtk DataFile Version 2.0
Really cool data
ASCII
DATASET STRUCTURED_POINTS
DIMENSIONS 200 200 1
ORIGIN 0 0 0
SPACING 1 1 1
POINT_DATA 40000
SCALARS temperature double 1
LOOKUP_TABLE default
18.595535203426238 18.197416810708333 17.770729254959438 17.344880902174808 16.914037039877794 16.463138505624197 16.016569943158192 15.653197992918777 15.464570325280222 15.497239011819904 15.734941600380884 16.123364919083677 16.59206153145086 17.050460275045623 17.38906608390555 17.51805490101199 17.41974118537167 17.161296379905664 16.85279442857028 16.590738834258932 16.43287256863196 16.406079697250686 16.515503252575364 16.73849756544008 17.017696125373355 17.271715131649582 17.427398695593503 17.45995157305875 17.409559691278115 17.348846313089588 17.320726887094093 17.304413291490885 17.242018415724583 17.09474860039636 16.87443189608561 16.63445577201588 16.444926481247865 16.373133426394443 16.466600569258105 16.73304670385804 17.126839756088184 17.558076270994025 17.924066109699435 18.141998905459495 18.166069266222884 17.99321943970221 17.66305544494274 17.24465874658787 16.811710800340713 16.426560564219503 16.14319382477999 16.010359773258276 16.055509732557965 16.259880870797595 16.553781040376954 16.844408875366653 17.056496755851647 17.156858951009024 17.153962317619676 17.08297421504456 16.98696602859736 16.899561924569845 16.836942164996735 16.805833864718107 16.818578316665626 16.894923464004023 17.04361113572005 17.241713926331943 17.436037530130115 17.570342301315456 17.616992334166547 17.58977628699787 17.532184617821997 17.490679990517624 17.489428441058838 17.524294184344193 17.580698185627785 17.657782846434788 17.77588052952847 17.96074660317515 18.21802526705714 18.519222285066046 18.811998425070556 19.047018412821075 19.199855898302033 19.27620455010375 19.30318623513412 19.31073462566758 19.308491585426673 19.2729476659825 19.15881886772955 18.929233103422145 18.583506477226774 18.167720001085254 17.764398809200344 17.461729151372936 17.315067794849806 17.329174233953978 17.474709186421485 17.714353775023223 18.008558281220242 18.307251374165105 18.555568408461166 18.719485238990643 18.80296365581808 18.828920317147965 18.79935952364114 18.68176019405544 18.443174727578878 18.098617333191818 17.720884606240183 17.39774174402592 17.176020935049724 17.044034876750192 16.963860106168042 16.917027638134563 16.921766962152 17.01623436740803 17.231140855824947 17.57074871334015 18.004443064005265 18.46520441404276 18.857647689889287 19.084311532085405 19.08989229606288 18.89754801309264 18.601603822615076 18.315305956482366 18.115660448954806 18.025278973184466 18.029059468232546 18.0930010187401 18.16785221859924 18.193544132182165 18.120133584707006 17.93256518262041 17.656143326978242 17.341067919250243 17.042728575698938 16.806019533688534 16.651620398718535 16.570137930386796 16.53286213056806 16.51472385439397 16.515815064205732 16.568434016136987 16.723091535024732 17.01823586841542 17.44897796362202 17.952282967634453 18.422651475176934 18.75777383842069 18.905334450458124 18.872703949737826 18.69660713345107 18.40952601666275 18.034529810938054 17.604603515089053 17.177811829908823 16.8262275425609 16.604446793883326 16.52481514165525 16.561176141010115 16.675520985296227 16.84022501320082 17.037395609864333 17.244155523885734 17.424741348658312 17.53955203933623 17.56691505986321 17.523065526376733 17.461607034789765 17.444486104343635 17.500559767071163 17.603999876225817 17.69141150973469 17.7025601009395 17.611537963513 17.429214996935414 17.183853439507402 16.90219267483892 16.607734326191263 16.331436652270508 16.115005689397638 15.9990161443818 16.009867760566465 16.158509585017473 16.445527512140806 16.860571907295373 17.37492455342036 17.93567616400914 18.47006814513495 18.904201323113472 19.191243813163354 19.331866505404104 19.367030452233642 19.342608415269822 19.274283896644654 19.142932229200333 18.919474596955467 18.05424294984716 17.72155463453744 17.380662095903514 17.053438751649143 16.727627981082215 16.38041573366325 16.025907706744785 15.732646637829781 15.586706728074594 15.63790761217606 15.881434980837215 16.277259538831608 16.76540407116505 17.258036900369007 17.641289040850946 17.818118429142046 17.765342464584382 17.547908016998115 17.275909270381387 17.046890678586085 16.919492356050085 16.919162444818294 17.045150504631764 17.265369881121543 17.513869990781284 17.70665116037071 17.777119961506692 17.715718559963523 17.580457802519973 17.454666211172828 17.37934909901525 17.32377200168878 17.222783576628306 17.04033993694774 16.799370539045857 16.563678447075606 16.40339121654414 16.372755024396895 16.500561193727005 16.782367317854835 17.174229872189034 17.597925061519643 17.960872590443767 18.179861927514334 18.199244739495775 18.005166552563647 17.633506649732688 17.159849432728816 16.67286058013684 16.25290781399474 15.968342670895513 15.873693620683559 15.992263306334376 16.293952565550786 16.69534227062502 17.089843732862505 17.38694925691326 17.536856392521237 17.53590342067626 17.419639378083048 17.24667421509998 17.075421966766786 16.944857908278166 16.871954609224993 16.86267385011101 16.9197593428213 17.038429899007127 17.19773799251808 17.359573649797753 17.47949497241671 17.525286304564904 17.494445860900186 17.418349982062832 17.345314860061325 17.312317948555556 17.32959922915689 17.3907928871391 17.49584090569817 17.664108500795614 17.924218758020277 18.284940604927126 18.709480287094845 19.118473213709816 19.424069972369935 19.571059551669915 19.56064952744403 19.446769125751576 19.30504460699839 19.187751727865006 19.09268113578693 18.969558120239842 18.759981681947203 18.441805483142304 18.050799285507875 17.66963402324461 17.389608549967566 17.266295130256974 17.30036344213355 17.455632883804135 17.68818306822241 17.954969456909232 18.20645038393053 18.391340511833793 18.48123510790534 18.487790400365252 18.44422512633092 18.365080357597428 18.229917290698225 18.012720450024442 17.727017369529953 17.4375773903917 17.22292293248686 17.121938263387015 17.113740491120573 17.147565943727777 17.1908504473566 17.252024680616437 17.36828098953228 17.578239952020972 17.896939288395597 18.29924176686957 18.715951068857237 19.048099289454026 19.201527378580277 19.133094254886657 18.88128454239595 18.550950639730026 18.257311771410368 18.073961541185565 18.02045664721238 18.07917711861056 18.2075680589907 18.337323724329888 18.38444108319158 18.28339555467152 18.022695959564857 17.650263209647143 17.24675962842311 16.891388541228864 16.63793578666645 16.50277548129621 16.466195903064413 16.488208383363894 16.531829478458043 16.583725276900914 16.66260618845577 16.808341145527525 17.05523299700019 17.40411613005534 17.808405240930785 18.185809259579926 18.457029955700115 18.58657324024955 18.588949477302634 18.496339332638797 18.3244582951607 18.0707341136551 17.741868017660376 17.377668783433474 17.043342602620342 16.796334921694633 16.659443241441693 16.623137292004277 16.66824938595125 16.781274482240864 16.94875583489828 17.143444557025067 17.320763039119335 17.431145691382948 17.443594356190438 17.368705191208665 17.26220264190558 17.19613658793296 17.21140663546625 17.289908513495213 17.37200364474942 17.401032564601916 17.353788258030477 17.237760917046366 17.069756648215616 16.86249344671232 16.63089793787322 16.405041485076982 16.22829175997695 16.139693366753058 16.16085530930472 16.298871080432267 16.554762853149267 16.923318418238477 17.383922852035308 17.891261021312914 18.375165910256666 18.757102832226586 18.981515099147405 19.04346655901501 18.987632603690113 18.873464279005848 18.734310394401042 18.564907546911574 18.341756447152417 17.458904889966618 17.252163849979414 17.064878245787803 16.901089414837923 16.73126103618697 16.516795683108185 16.258609289427245 16.01793153236798 15.88312334404083 15.916394608877535 16.130998852032388 16.50416034902815 16.98809542701408 17.50047125709454 17.92484601283667 18.153089435061798 18.146401714718294 17.958141052080556 17.69851832095959 17.476816806292337 17.36551454612456 17.39379006860021 17.5500101638443 17.78387556299276 18.0161163769862 18.16132615202566 18.16189562473122 18.021225966519992 17.807778411408595 17.609811957776582 17.469682464809555 17.35874780988586 17.21647400710293 17.011731719866987 16.769444034307227 16.550415249327013 16.415434524561846 16.4036341746137 16.528402895549473 16.778982055585843 17.120339856169885 17.494458555016667 17.827746633724846 18.043813708852458 18.081233230233266 17.915898286441752 17.57636535318749 17.135482502627543 16.681960178343733 16.297509694656913 16.052951164670596 16.0057278649544 16.180255088287403 16.54412555406032 17.00894192915288 17.461386879416303 17.80202642516608 17.970958612969127 17.957861228328643 17.800428258213902 17.569873298184987 17.343352959736098 17.175258125266065 17.084841980131696 17.064797391049858 17.09845632942813 17.17171741191821 17.274261137302805 17.390846575712157 17.491297608227363 17.535079893292586 17.49600928327527 17.386862583879488 17.25668060720328 17.1608304018052 17.132644431362902 17.179799586365206 17.302410651121157 17.51267145347199 17.83399780717475 18.272875464116275 18.785041317476768 19.271357048652664 19.615139626300074 19.73722543764508 19.635603772975234 19.387609536616182 19.109376376165322 18.89191268470727 18.753943374003708 18.644010103357598 18.488213249434562 18.246724946965482 17.94210694810789 17.646920560028676 17.44213635764157 17.373144573583588 17.433154111785132 17.582258082180118 17.77629328826339 17.975972458551045 18.140008153223587 18.22849830358254 18.224552018037087 18.149051656800726 18.042451025700853 17.92698870047644 17.791422941794384 17.617101954998105 17.4172321572957 17.246145572243783 17.1658534725649 17.198879330261647 17.31089636350549 17.440466951581836 17.547653438334624 17.638614662748353 17.754657135308022 17.943623083766948 18.229917020052927 18.591807875553407 18.956302432685227 19.22007784906912 19.293521823241424 19.149778044729995 18.847455646288097 18.502890333822513 18.227787447365195 18.082152428401862 18.072285414648885 18.172728192745243 18.3353306277833 18.484275040665647 18.527421837856267 18.395803575727772 18.08328512889089 17.651380238559344 17.19736337092949 16.813476240531404 16.559402428854668 16.4511319422313 16.464417993255754 16.55077134721374 16.66024659589378 16.76424213753241 16.86825867264943 17.003568850830632 17.200609594364447 17.462699133745385 17.755986439475627 18.022093932985054 18.210828814019504 18.310801705177408 18.347357205349788 18.347522979362545 18.30827998345008 18.200253552017863 18.002059244458845 17.730244126343237 17.43553842270514 17.17177751390674 16.96989405407747 16.838757723163752 16.782386295897748 16.807397846779658 16.91188604290429 17.071408648208077 17.2384442062465 17.35641058115908 17.382983351285546 17.314951935508777 17.197493095633195 17.1004637289128 17.070537056427863 17.099845381899602 17.141778190872888 17.154227147537323 17.12487033132443 17.061707481577518 16.970803824871552 16.84977644052748 16.702347127532487 16.55357474939128 16.4438504932733 16.4065711841043 16.45480515404666 16.588167031742874 16.80598015900902 17.109272126042136 17.489191105226116 17.911203420923947 18.308442811300427 18.597353262183326 18.715444723510675 18.657632554440564 18.479338445586592 18.258614585015692 18.04795856320581 17.855522225559653 17.663358132471824 16.87573231184796 16.825883003880044 16.83257989241405 16.875157306189116 16.897222965353848 16.836319229967668 16.676609520634067 16.473811033920892 16.324443954131105 16.309705561432803 16.464608249134617 16.783849402241955 17.23193338061931 17.735214811543003 18.179355703318148 18.44590406175457 18.474713851268568 18.299818769098046 18.029331012938798 17.79018751838793 17.6777457869089 17.729876979067647 17.922682469162677 18.18365068695468 18.418197054755325 18.540027277352454 18.49973363143147 18.307876087968445 18.034107965160523 17.765930337321272 17.550856780088893 17.373685970019675 17.18861692316828 16.970663628388287 16.738891593308058 16.540474601924867 16.420213631413137 16.401947808645993 16.488246360340874 16.66848954467654 16.923244248472663 17.22132521734878 17.51437112452092 17.73766611677909 17.82642017590087 17.745515148186193 17.511314629194494 17.18397804471345 16.83805564546784 16.54214763225653 16.36019319078569 16.351199830466342 16.545988552872085 16.917947721832665 17.38165249742622 17.824945511104804 18.14943236321957 18.297370904532873 18.261922354815916 18.08474753625948 17.841102483491635 17.612181616889877 17.453628923856364 17.37784335026077 17.361501576974394 17.371476771881568 17.390668491576644 17.425833696370486 17.48904708284212 17.56683936299958 17.61122125132416 17.570847270187926 17.43553770857678 17.249743998804288 17.084345425064395 16.99673683973405 17.011646593948317 17.131454995707287 17.360494094542105 17.713883165319025 18.193426716800058 18.74981609529312 19.272721852045063 19.62778108456053 19.71940412925973 19.542000670183082 19.188568397311766 18.805240636306273 18.514157732130073 18.353878306097997 18.27693915302993 18.201247681751646 18.072718025990376 17.896524959348316 17.725078842807108 17.619133886517357 17.60988923766107 17.686418397131796 17.812342650983553 17.949494706674113 18.06542624343006 18.128632059585527 18.11284970912205 18.015443926233576 17.867287443634247 17.71319706790753 17.57774969318252 17.45422157869107 17.329955760247355 17.219309400315996 17.167022402926353 17.2162421061841 17.369270327271487 17.577154540217652 17.771322020811173 17.910789528996492 18.004873364677607 18.10097078217863 18.25465425059823 18.497048419960723 18.80858682782697 19.113172958680153 19.304767221426808 19.300503346466236 19.092522890773044 18.76101382089249 18.43114717613124 18.203618229029846 18.11503629045609 18.150394819088007 18.273835493400124 18.436950075484145 18.56936305008772 18.586789492375726 18.42786091447544 18.091446619659365 17.641430886644812 17.17703102497337 16.793849788098026 16.5563289782181 16.484747826249542 16.555037118071283 16.711117323267544 16.88801073268274 17.040671676441193 17.163890398475658 17.28530986911443 17.434568998141724 17.61530750984772 17.800509751636465 17.951023640405044 18.045253459812457 18.098080098808254 18.147841336829774 18.218720623270723 18.293653429318823 18.323504131775096 18.264104576712995 18.107957353032525 17.88460248239303 17.63581853328814 17.394274418555348 17.18379011045486 17.030590920234527 16.962737621033057 16.993024766648297 17.103650616483648 17.24815494029519 17.367608495868723 17.413221347283585 17.370240786935078 17.26976934529027 17.17012594925593 17.11293891684698 17.09374635794748 17.07844780965258 17.044077426542522 16.99671468252114 16.9534896105831 16.91734845121453 16.874811461484597 16.817184095681334 16.75918790828454 16.732133888732015 16.759676498086197 16.844367898740774 16.977212794611347 17.155337087578676 17.38664621826557 17.67504320469952 17.99661212325336 18.28690102618134 18.458262134148054 18.445521633318993 18.249184498722297 17.938980920656928 17.61099803216251 17.333668069892518 17.126170557062682 16.97710259323187 16.401787719031393 16.496108599300648 16.688408905509267 16.93407331731717 17.1470956723643 17.237732054376107 17.171269751411067 16.997387831592917 16.82132686608272 16.74375767854197 16.820441891336717 17.06115591267384 17.441548595655917 17.89966385814705 18.329912569578628 18.609409624859342 18.657460545272023 18.484490087509485 18.19126597802138 17.920290545200835 17.791723597485216 17.856185618259385 18.081664057164943 18.376630527716703 18.63281982921187 18.762253664487357 18.71934248169758 18.51368424686707 18.207081127830985 17.88149064181116 17.59218188048912 17.344847053176846 17.11466969179163 16.883861355179434 16.66228821771481 16.479315011037556 16.361725028945095 16.319169061657554 16.346939937577922 16.438909321036743 16.594843733623346 16.81271553634587 17.07100844300927 17.318329155404236 17.487983705196946 17.533585138824474 17.455586560081855 17.293968682489705 17.09957518142037 16.9191676590256 16.804321435228122 16.81421256926704 16.98807668578754 17.30924967172242 17.70110456063184 18.06136657704835 18.305778590799186 18.394375900318725 18.33534912521322 18.174520360051915 17.97827234977943 17.811782558904376 17.714471623946647 17.684008660560462 17.68346974219198 17.671228976783244 17.634349308706973 17.59952918933703 17.606368101211086 17.66006455733033 17.710386845619425 17.6853214846324 17.550163409021902 17.33633954864606 17.119643072148214 16.974651597842442 16.942557850668962 17.031894666164792 17.24351226264259 17.58671274228753 18.060609846664743 18.61573328100174 19.139518439076983 19.48987994763302 19.56031941092404 19.33891180565005 18.924157838834212 18.47988085608847 18.150852527054298 17.99361436680313 17.968034834987073 17.987949078512578 17.985621423307986 17.944968934802027 17.89301116217927 17.868241379399475 17.891400324342225 17.955926284868678 18.038253301392473 18.111859950599673 18.151403237770282 18.13182377598265 18.036565461519867 17.874150021747084 17.682560447506113 17.507194811469375 17.370149571958812 17.26473895048254 17.182456124600712 17.140752122805004 17.17885274578429 17.32445879571919 17.56170421471022 17.829229986503048 18.05451011444586 18.198234807040837 18.27329578092954 18.33114328185231 18.432318950687275 18.613685591785114 18.86003803084499 19.09650372805742 19.218292870173396 19.151113167066576 18.905180175752864 18.578227028965976 18.29730279193546 18.143996764382848 18.125030159947748 18.201237545416735 18.32813850303481 18.463834843872238 18.554217980740763 18.534231211009068 18.35647340843188 18.022236227792018 17.587809142681955 17.143358771844312 16.78178340098596 16.572538467251757 16.543823936304495 16.674708274259466 16.901882674713022 17.14425601042401 17.340456458538522 17.477526128762914 17.58447992295792 17.69409925551079 17.809833850995258 17.90586846895578 17.954299050853248 17.955214913286916 17.94553906938726 17.975805826957863 18.071450869781838 18.211305897097496 18.339940015872077 18.4017621576144 18.36950146787069 18.248141128493614 18.059685748093585 17.830007410235737 17.59026369480205 17.382931775477214 17.25371469350664 17.22805211547616 17.293491691156493 17.404701305103632 17.504462464181806 17.546920392723365 17.517147956385724 17.438766732701428 17.355974040765208 17.29551936269914 17.245123069526088 17.175119218949142 17.078527218768684 16.98240383382831 16.921118961048066 16.905131790207385 16.91789117893133 16.940113419465547 16.972453005798 17.03178950314847 17.128722915502475 17.254652184011807 17.39230130833471 17.53628882330772 17.69997105974275 17.897766852803308 18.11470792840076 18.29017417818345 18.338204355207104 18.19840321266118 17.880646659021295 17.465748334224013 17.059262924557643 16.736491020208213 16.522315221003872 16.412055929324303 16.141521745139652 16.32771088304976 16.64653317814024 17.038486971259264 17.394568425553317 17.601857332097524 17.608112153377043 17.455034835254946 17.251928026720424 17.113128591952528 17.109403075213034 17.260511771100308 17.550037708204705 17.928708829127963 18.30627080123177 18.565431128323308 18.612909615152404 18.43634941486695 18.122378308696785 17.819489789104185 17.667049304290593 17.730653231613026 17.978614112123076 18.309375471323733 18.605220983679523 18.774520765338472 18.769329169240855 18.5907572060982 18.286320520829104 17.928918505646585 17.581382171493235 17.271878248060716 16.99795812709919 16.749881611411148 16.529656295771403 16.351114375232832 16.225685088879807 16.15155936336575 16.119537984154384 16.12987481115718 16.20078830218394 16.35565467527003 16.595395868182155 16.880167269464398 17.14299966849856 17.328578587033522 17.42151114789396 17.439319245791996 17.40648630463664 17.345845155883165 17.29417079125151 17.307296039585943 17.42939118368005 17.652640822299222 17.91275785739839 18.12686473912785 18.239417675551298 18.243295858449386 18.170239020660492 18.06688871056396 17.975793312795332 17.926054808182837 17.925465769916457 17.953437978388386 17.9676065546336 17.930265166140625 17.840317022219306 17.743613422870684 17.70217183284772 17.73813273999305 17.80396612847942 17.814022872635338 17.710596674701975 17.504976561248657 17.265899207041944 17.07529284906265 16.987848239470367 17.021645228284736 17.179729124178774 17.470431554393638 17.894611613546232 18.408749276855822 18.906208374915828 19.24490030648668 19.3107463613397 19.081791439217128 18.652458227182578 18.19338076726512 17.864303450353425 17.736569527270746 17.77671941818547 17.89362678758759 18.00391189181909 18.069015182783936 18.092834714466495 18.09813409353532 18.104297048418484 18.118329501406183 18.136796998419868 18.148708912677993 18.135231825716744 18.07275460520212 17.94648368050204 17.767629907642263 17.57464933644612 17.40959946407334 17.28984735060331 17.20673686206035 17.154384012719014 17.15401812137959 17.24318857870828 17.44014293384405 17.71723029754508 18.005988016307565 18.232721415870902 18.358976578348198 18.39749364339642 18.399709350501546 18.42942783667083 18.53123134755694 18.69940605286077 18.866325263520274 18.932308093068595 18.83090072632731 18.58447442018091 18.299026699353195 18.09451932076535 18.02841094916324 18.077680337051362 18.182760926605418 18.295734151460845 18.386784965740343 18.42357645374154 18.36452549296601 18.177318598348922 17.862766073560284 17.464086423604915 17.057239828816872 16.729513356907223 16.554665944735692 16.569284909632884 16.756491175657242 17.047002883726844 17.345358742200712 17.576098372234643 17.721224838215615 17.814438981499805 17.895041113957124 17.967609842946032 18.004279176282548 17.980128870767278 17.906057747690184 17.83151312521679 17.81494087575334 17.886356656096005 18.03108941923323 18.20190059347305 18.3451581921635 18.422128107269724 18.41528709084866 18.323782893778176 18.160253326327695 17.95489384652246 17.757669049294943 17.623877495734906 17.58453224815253 17.62630959546022 17.701167961368338 17.755729665189875 17.7574010835012 17.706491977325577 17.63197475068046 17.56784740655996 17.520837912530048 17.461088317707826 17.353139355967496 17.197754152473248 17.03925797042699 16.932194008408413 16.90295257821786 16.941166139354152 17.022365021822132 17.133359884050428 17.273954310079763 17.439538533441993 17.61021557407832 17.7611858237153 17.883809957421867 17.99322807836211 18.109299865067175 18.223905349732238 18.285176721974786 18.219847466183467 17.98245450657543 17.59369756186304 17.136183723714428 16.709919049228713 16.383408508780573 16.17895420998404 16.09630120632399 16.159453796461644 16.367883055960814 16.724997844478036 17.170202094654297 17.585516394608902 17.846063930533926 17.88780443475525 17.7432223717455 17.51854878334387 17.332098528511832 17.26058589238971 17.326394391999354 17.515467946756015 17.789142701795775 18.076996678162455 18.278881019456165 18.3022336480294 18.11835969247436 17.794435703938696 17.47169682827674 17.297584653733146 17.35172840919813 17.611612294260308 17.976561684219387 18.324737893436577 18.559152444639356 18.624664111875177 18.509933214253977 18.245838865573642 17.893811916997333 17.520408959728744 17.171575088733782 16.863853111763458 16.595720363736326 16.3654832287964 16.17774418693994 16.03472646155529 15.928320526172598 15.848721718076845 15.803368129778027 15.824081787926685 15.949427997908971 16.192110843964556 16.51889890967923 16.86508857266185 17.172623070187253 17.41558391016548 17.5927336672585 17.705639329229932 17.75571457624816 17.763709336962517 17.776175851988718 17.834608623487387 17.935656683394836 18.029607686642166 18.06197164086394 18.0181637048733 17.933430307041863 17.86469007602064 17.851896203427696 17.90008736339475 17.9881562327732 18.08443734344089 18.15330178755987 18.159912324806946 18.085330124137837 17.947766770858372 17.808578765855735 17.742012442427857 17.779324816739855 17.875668708739706 17.93724512197077 17.88757022827691 17.71614278038886 17.47791967905527 17.254917739907 17.111801172669686 17.077298925823595 17.160183968245143 17.371569353447452 17.717796670112094 18.1658666453297 18.620636978139796 18.94529255189299 19.0207461489266 18.81285616097969 18.405509353611293 17.968310927800438 17.669542801512375 17.590811579911154 17.701504635396482 17.901777947887062 18.090416589148113 18.20864607421139 18.245251958184717 18.218582428016333 18.15671978304795 18.08623834701482 18.02646893579334 17.983128058944207 17.943657984831535 17.882301086782274 17.777883108571288 17.63378599700405 17.48069087815504 17.354378244835566 17.2685821590043 17.213974775479365 17.186460471518917 17.20929303090453 17.318807811317722 17.528289641372282 17.805690120320385 18.08245005928017 18.28695874080603 18.380028060005042 18.37008033881685 18.30549480584734 18.25347219235539 18.269195230319617 18.360517726833127 18.47070170544861 18.506375190440775 18.405349382641052 18.19324976336449 17.97354822983005 17.852428878859797 17.864435366406738 17.964288813370537 18.080515675014276 18.167158328236898 18.20813680795323 18.192045119955974 18.098788032051083 17.909261955487978 17.62304676622945 17.270529350046658 16.913153930552863 16.630199014374504 16.49550620580902 16.55028576940073 16.780969189895654 17.115416767734416 17.449237270156196 17.697866816321795 17.841035173919078 17.918488262773916 17.977974676764603 18.027541558473366 18.036814766345934 17.97755639992802 17.86013651124295 17.734894452001473 17.661531325468918 17.675331302856453 17.7749953502371 17.931707752662238 18.104836455661257 18.254248467405603 18.34741431457487 18.363964367409846 18.301521154119726 18.182842076622045 18.056021485979826 17.975936120565684 17.969995507152415 18.016428740437426 18.05974048896855 18.05081848897243 17.977609642602832 17.868032947461145 17.768579686220498 17.709943350277776 17.67927317383038 17.625125200813226 17.499667858735435 17.303270900977537 17.08994738038718 16.93072364046846 16.86997725952196 16.909811961283346 17.0273260845395 17.199612006201296 17.410504090342155 17.640131395754384 17.85796270957528 18.032764774494858 18.15158392059561 18.22619812244269 18.27499064493227 18.294240742591317 18.24748167826751 18.087347427416372 17.794143587538276 17.399675281565507 16.977204476643845 16.604752389297072 16.329399124189397 16.161210383320714 16.099384072447982 16.447293887311854 16.620738378469046 16.93334174716593 17.336004279725902 17.717795781419415 17.956849914266606 17.986946979182985 17.832988082192248 17.59205092676538 17.376053346589767 17.25738317899495 17.25297078442288 17.3448402362598 17.50089332258416 17.671890739091108 17.784163880455203 17.760089503303796 17.564880940629777 17.244818366890822 16.921654357884833 16.737404326647443 16.780797644543657 17.043981677151812 17.436631834168853 17.83872814844214 18.14850327640044 18.3023905192594 18.276936960544436 18.0874050648717 17.78171805652192 17.423225211631124 17.06655682313978 16.741090509605147 16.453433594196593 16.203334577875918 15.993462432174415 15.824112522618623 15.687703905631802 15.57918310977065 15.513751438545244 15.529322197754441 15.665186694819798 15.931324685897794 16.29449482608226 16.695886605364628 17.084270824792537 17.433029604939616 17.730008584630756 17.95997206396033 18.106416905573923 18.172765410032422 18.19015003978007 18.190140890215595 18.170166308254156 18.096944722497305 17.949980581594556 17.760625839742403 17.606432982830345 17.56312535088633 17.65421171572055 17.83877414643608 18.041868403831995 18.195415826756456 18.258783386054507 18.21905797363733 18.088834417264316 17.910429675699156 17.755075389921913 17.696661478070066 17.76348663221893 17.908117424735547 18.030981381442725 18.042713359064855 17.915412636100854 17.69057765688532 17.447262973258738 17.25645898469184 17.155812209978524 17.160531962422073 17.286454837488282 17.547152763097905 17.921373220295155 18.32707084915184 18.635467835217163 18.725508788045513 18.552008330804732 18.186251974826362 17.79220764479277 17.541124941200597 17.51949394282622 17.69491850035939 17.955646750050903 18.18237302789248 18.300541254759636 18.292962738331507 18.18425509450371 18.018696068106067 17.844305637493246 17.701424052208832 17.61099422655297 17.566831848045997 17.54011257289741 17.498230275978454 17.428272643872567 17.345881094257543 17.27842138335815 17.23846234522077 17.219088362718576 17.218139413417436 17.258122074048746 17.371848487070114 17.569120761636043 17.81893354284678 18.059129007790244 18.224327141994586 18.27526852593592 18.21496078014269 18.0881008765605 17.965407511090458 17.912272562026825 17.948709467892648 18.027276892276376 18.05916391143469 17.9825633219252 17.819241203449664 17.66316981156617 17.605895340207653 17.666665631460223 17.78970776325596 17.900412302478664 17.956850531033215 17.953379793526555 17.894101698154586 17.77562327281217 17.590276055410822 17.338768100276855 17.042890143007877 16.75088209354968 16.529469076383677 16.44417856168929 16.53394246055758 16.787575733818286 17.135780753642084 17.474337464827848 17.717179924430525 17.84466926037133 17.90181767659349 17.944220703381436 17.984946782323515 17.99222315367276 17.931022621311634 17.80254131988865 17.648131870712575 17.5222797949799 17.464026894873413 17.48751430483038 17.58656601010788 17.74007072906189 17.915697782523598 18.076121112384474 18.18893206420519 18.238226920416096 18.234458605714988 18.21514700763218 18.225717488198743 18.28330174277128 18.354225521514664 18.37442772966672 18.29908747904362 18.13778763034361 17.948967035914958 17.801404492808675 17.72804819252253 17.70156923104701 17.652532790202482 17.521472737534577 17.304918168755957 17.05925769649253 16.863665431407128 16.77511989103557 16.808176860919875 16.94604016420535 17.16213942103713 17.429257076444383 17.715403515076343 17.981550245859605 18.1911565729286 18.3252587214747 18.38654166500583 18.384933982388468 18.318805658968618 18.172918125850693 17.936651205892428 17.624459036435734 17.279485691551127 16.95778292390871 16.703809664344863 16.532412668830734 16.43305424233183 16.39787420370675 16.927689251489944