# vtk DataFile Version 2.0
Really cool data
ASCII
DATASET STRUCTURED_POINTS
DIMENSIONS 200 200 1
ORIGIN 0 0 0
SPACING 1 1 1
POINT_DATA 40000
SCALARS temperature double 1
LOOKUP_TABLE default
18.529377536292934 18.170859235992967 17.779232581674034 17.375223561632932 16.959421928035518 16.530893956971216 16.11787365080757 15.785607295302258 15.607657034986088 15.625815455609096 15.833211672493185 16.185022932442998 16.61297164406191 17.030031287859632 17.340197238789955 17.468846507551387 17.398959729698046 17.181030295099397 16.90578791518286 16.662649570357672 16.513709658132985 16.489684529502547 16.592971040058053 16.797119675432306 17.04786294979953 17.275748654827158 17.42219906224384 17.46747398680672 17.43917905704018 17.38801902508713 17.34607693441675 17.30359829374944 17.224300938292526 17.08188639400133 16.88471552659729 16.67482674093395 16.51172269451628 16.453946275572786 16.541221311615583 16.777619935706795 17.122929893989454 17.501134559546514 17.824470090893083 18.019764514542945 18.045595327569877 17.89917457446562 17.614374027333234 17.249346064319322 16.868097867597644 16.528398743279105 16.280627726082322 16.166334823729283 16.205717900524267 16.38114739769926 16.63524667865198 16.891463649349713 17.084738714400917 17.182710603141352 17.188745521703005 17.131257731787098 17.04753534683829 16.968890519682258 16.913701179369998 16.89163719220079 16.91270711362633 16.988564667106004 17.12148952175545 17.291671812817196 17.45821187276529 17.57727146609267 17.624820912654183 17.607968275385616 17.558510117770307 17.5140403234626 17.499013131632545 17.518518623211705 17.5681277648297 17.64920263486859 17.77449771556483 17.95840675204532 18.200190019743843 18.47489098538626 18.740646989832772 18.957488986328315 19.104152424032655 19.183589666537053 19.216284359965908 19.22452408410719 19.214445625194816 19.16740705806068 19.04937298255336 18.83396948209899 18.5243696499033 18.161382375889442 17.813350046445912 17.550965189321115 17.419470551525414 17.42632455014261 17.550661704626823 17.75989477858477 18.016416048030962 18.27677397823282 18.49788647500585 18.652676815859905 18.738553749493587 18.76436092728393 18.726813298888153 18.60449880063559 18.380894772107304 18.074439138255862 17.74260155552758 17.451927464267065 17.240176783517303 17.10408216363424 17.02056627590807 16.97833050480311 16.991838203179856 17.091053596272896 17.300330205249534 17.620853357203718 18.021673412990648 18.439435022454244 18.7892570250147 18.990388582092887 19.001324490838297 18.843884885529107 18.59460999832994 18.34566054832905 18.16357431119335 18.07246801940906 18.062041713921467 18.10133805137641 18.146415979677556 18.148116505630334 18.067474517276725 17.89210878621605 17.640778107493254 17.35386024503328 17.07815680251828 16.85256790429393 16.69669980974877 16.606776099657253 16.5636132446678 16.55002389508749 16.56771617200908 16.64263284059597 16.81310952262365 17.105174482629014 17.508124501525355 17.965382133412735 18.38977663451891 18.698475909683257 18.845857654718706 18.830913201874438 18.67837349515057 18.41637362513609 18.07127855815782 17.678124952445696 17.28850732911127 16.961628712746112 16.742391661142186 16.64434257999268 16.651636210470592 16.736458121571758 16.87463068240796 17.047027236051367 17.23111201903504 17.396032997062694 17.509443287774296 17.553490423291887 17.538888150208766 17.5038286911992 17.493040373266687 17.52862908540688 17.594340923506408 17.64588214924465 17.638312096814353 17.548950843230323 17.381777811562927 17.1565669968522 16.8968885447591 16.627657496146412 16.37967762715732 16.190110486013083 16.09432722769982 16.116569666810236 16.267300916057835 16.545331412610246 16.93771042931744 17.415422833331696 17.929951429421354 18.417769052233265 18.816243477501775 19.08599313593628 19.225684941047707 19.26556379432987 19.24122847100876 19.167768529658034 19.034841831211402 18.82364934642382 18.019183008709433 17.72058847007999 17.41095536747717 17.103080765130287 16.7892920071642 16.45950879674692 16.13221169475546 15.864534827035143 15.726850376690395 15.764669900561383 15.98056074006678 16.34080738266152 16.78536787594834 17.22998977789919 17.57633236402774 17.744938531571464 17.7144023079014 17.532787513658317 17.290315940791405 17.077044788652852 16.955494934567383 16.954623412196575 17.07152245862209 17.271947729388717 17.494890160076146 17.66923037844717 17.742045528481736 17.7055506493341 17.60083934423003 17.487184048773766 17.396879750041393 17.31479503172708 17.20040130747954 17.029183581688248 16.816412704242136 16.61020721187219 16.468959172483093 16.44142156411194 16.55405461119338 16.802479933474782 17.147657921725123 17.521675424217083 17.84388183734474 18.040875737522 18.063956873762997 17.90185493794333 17.58508795072453 17.176589376339248 16.75217334507196 16.38425151428988 16.135386893099643 16.0526736264961 16.153744177205635 16.411922853364988 16.757576126003922 17.10099933298591 17.363697485327258 17.50082336141938 17.507979532837513 17.415005417630418 17.270991407609994 17.125333128592494 17.013031533991892 16.951544742830283 16.9471581062731 17.000721936026192 17.106108687819123 17.244883313247275 17.38541237738438 17.490958596815826 17.53449976231489 17.51259293302867 17.44862755943021 17.380824726262894 17.342313753208693 17.348923909350095 17.403580593487725 17.510434983482764 17.683378582178186 17.938665555308713 18.27505006247903 18.657499082556512 19.020894627115645 19.295024595934674 19.435510385472714 19.442588623700146 19.357840320496 19.239335453196173 19.12741602638175 19.022132567662716 18.88830716548301 18.684926648654375 18.398483733286106 18.059508192571744 17.73359491421172 17.492255408949852 17.380870026476416 17.404384040297863 17.537062826519954 17.740859353966087 17.97428506620197 18.19301242312056 18.356414509384802 18.442946660303484 18.458264630458707 18.42162077896032 18.341034291597165 18.204838129461724 18.001604085970627 17.748490318191504 17.496654223489926 17.30450179677609 17.201589420256337 17.175529027216303 17.192320994633914 17.22965282558106 17.29458899680459 17.416268617503835 17.624432227278856 17.927624602619204 18.29905394835164 18.674967114187883 18.96949303925516 19.105624480822453 19.05172461054688 18.841790296456193 18.561227215425824 18.304887615857048 18.137447400560056 18.0797978195009 18.117142150873725 18.2093234298097 18.296686579547295 18.31227785807688 18.20633262596463 17.969884947406957 17.639143149263255 17.27820881174509 16.95357496691037 16.713173847050655 16.57483011377038 16.526255381805246 16.53698297926024 16.577530017570332 16.637066034153285 16.730223435208924 16.887526485032986 17.133116223497353 17.462228936206113 17.832140071545645 18.17463444277132 18.426047026986787 18.555255958118792 18.5675879374841 18.484041030162974 18.319014988897393 18.078211283758012 17.775092905421086 17.445042545404874 17.13974932341692 16.905360009249794 16.764067900629854 16.713942080290035 16.742435303877148 16.83676294668485 16.98173628577049 17.15162339473018 17.30838235334301 17.41177765182498 17.43779239213869 17.394844533277016 17.32415628689904 17.277665218673413 17.28496953118305 17.33448179334905 17.384416246151254 17.392409461568327 17.337869891089174 17.22305709394831 17.06062049792005 16.864537294429763 16.652503012719393 16.45234034602572 16.300089688466926 16.228819965486586 16.25925222276887 16.39967681949411 16.650279181582466 17.00301261754565 17.43523710704177 17.903180780939085 18.343738843043116 18.690040569547048 18.896824326028383 18.960181507329853 18.914803756920527 18.807650737013685 18.668043176250283 18.497393398974584 18.282797911115406 17.4670698723769 17.278165431325554 17.105213702498464 16.94555337208458 16.77536143578753 16.569470192708888 16.334211168914667 16.12026945844695 15.999773395999016 16.028182909134923 16.222801996149062 16.56454614626561 17.00420456466803 17.462651584634628 17.839950237584734 18.04861153932258 18.056001373834434 17.901692142148082 17.675242792084546 17.47378613626673 17.36844221218453 17.390329557466995 17.529111692109634 17.737860477476403 17.94559544398051 18.079249203180964 18.091758920610577 17.984918188211083 17.808503193748983 17.62715056081054 17.475911883521867 17.34214958924875 17.188844790514498 16.995060448175238 16.777563268563476 16.58179585202888 16.458089946162712 16.4429119561884 16.55108619950163 16.774126074172585 17.08023169384203 17.416742792266792 17.71735860000222 17.914400639607656 17.955418406406956 17.8210337798489 17.534873924859227 17.156530510650654 16.76161112127542 16.424332377023703 16.210101610652643 16.168593698177684 16.318032535050513 16.629385044317768 17.02823996805767 17.418662009758872 17.715067734373317 17.86591623622774 17.863264008127867 17.739454983603427 17.552756931967462 17.365285385957776 17.22203833735845 17.141627664018017 17.121527411371858 17.150238274022964 17.21621875308349 17.308503628077542 17.41059415958338 17.495412370826703 17.531141834255088 17.49900682351571 17.409296546486104 17.299403035108824 17.214045814448966 17.18509969671232 17.226815887609014 17.34614290609358 17.554289010677685 17.86418912938373 18.270877936776913 18.730399664013667 19.159780374907275 19.465428108399035 19.584658023752638 19.515873435749032 19.319306731107588 19.085185114809324 18.885556729955034 18.739251348808814 18.612635764893042 18.45362103288331 18.233484288367013 17.969302539861317 17.716013909231986 17.536169229725566 17.46776952029195 17.510734354286555 17.636860819803157 17.80798925291884 17.98522712481953 18.130066119770966 18.210404133787282 18.214212998191112 18.15598461455347 18.06283237042043 17.95047928921444 17.814777703611266 17.64929105463097 17.470226640136747 17.320593025150224 17.245887274180017 17.261924022201324 17.344145205544415 17.448677583314225 17.54636530433192 17.64176463308432 17.76666601531896 17.957452346927493 18.22966455255684 18.55984752711726 18.883372669638188 19.113738186885612 19.17944751319006 19.061830087622774 18.80967270792317 18.516610777145274 18.275020637586714 18.139604032833994 18.120525852768353 18.195228879105557 18.317488122194614 18.421029982827598 18.432608973126317 18.300089699611178 18.01902605921757 17.636747836187865 17.231361509808902 16.881254660273044 16.64077119025719 16.52812797382653 16.526374965449058 16.596106839928506 16.695503311713463 16.800241033706417 16.913462179562302 17.058351394102562 17.25670637176538 17.507680112027497 17.780597706776312 18.027190848308962 18.20712830714997 18.308706407454654 18.34649969692772 18.338120831913404 18.283433685572227 18.16656032936491 17.977586734281946 17.731729217620174 17.46749502640339 17.227141705670007 17.039017309224423 16.915793884697525 16.863441684045654 16.885563572128202 16.976809178323112 17.114008575951377 17.256356336373 17.3575507969376 17.385384182830833 17.33966457860273 17.255506436890048 17.18352309444094 17.156644326198172 17.169917246709336 17.190768058778577 17.187445180635944 17.14772609372087 17.075457958268206 16.976920768198156 16.85548622394243 16.71925267205211 16.589676551933316 16.497974918810954 16.471463725111054 16.524123489775768 16.659087948592884 16.87601325289944 17.172014033346162 17.533120865593485 17.9231682227982 18.281633894368085 18.539113511105977 18.64695810305964 18.602535199986303 18.4492172476219 18.24832148714058 18.04449595383049 17.85087409020894 17.66031993735826 16.94009642660504 16.886348113779228 16.880881365221605 16.90095080939814 16.900206212769753 16.83289860344375 16.69064725918032 16.51868846218021 16.39458998229938 16.38806418250682 16.534034807956214 16.82919136679992 17.236222006226892 17.68360406155171 18.07262197864186 18.30797423583615 18.342161552188536 18.20144876362669 17.973159978917618 17.764913852367204 17.662172113090666 17.7020610432512 17.866989676394738 18.09547195326625 18.30508014824573 18.42010201945406 18.397467439706183 18.243768400962793 18.011111494512928 17.76588420222629 17.54846143169416 17.35615864118663 17.162348094912982 16.95096612402989 16.735467916448922 16.55145791488331 16.436184941705044 16.413089810556723 16.488322667966038 16.65422207876883 16.891789500972664 17.169194911891257 17.43966681854136 17.64538752337025 17.732418306857998 17.672746386336676 17.478866317365036 17.198649178070227 16.896070643924027 16.635678450725592 16.47784517507326 16.472663875320038 16.642023916641477 16.96069306981702 17.35685472962372 17.736555317761617 18.016596135596195 18.148624136096092 18.12826861397842 17.99105550045524 17.79767481472227 17.61161718199727 17.476580422892255 17.40469402951778 17.382072679696396 17.386914073206974 17.40705430099492 17.444194151903805 17.500937501485442 17.56215360530319 17.591784214863154 17.55421486745097 17.443194364848097 17.291407135943324 17.152976823842124 17.076199612729404 17.088452168910813 17.200698087848373 17.420877222085515 17.756796668381405 18.199059545966154 18.697694102143643 19.15878551676069 19.4735653478273 19.56633849980371 19.43330565694828 19.147797511788195 18.824701231955903 18.56223101711558 18.39679657666214 18.299147858828505 18.21017919449086 18.087494866169212 17.931575500028035 17.77995520250342 17.67953330078464 17.657951994718896 17.712037197977327 17.81619228563012 17.937405925762278 18.043112026532548 18.103057996303647 18.0956075146531 18.019499952382265 17.897557876365056 17.761992074183798 17.632221000277895 17.508347522097388 17.387791068980736 17.286303305665882 17.238872340174485 17.27654536218252 17.39921675205887 17.569685331506637 17.73659545951084 17.86809780062698 17.969927924858602 18.078187308719414 18.235553046076895 18.463543238622307 18.741760975572898 19.005529161403874 19.169180401952378 19.168419142853445 18.998996508208513 18.724472871086647 18.443719275645964 18.24049792041194 18.152104050569456 18.17222232439048 18.269253366635542 18.39566402679332 18.488641810534297 18.480357377415217 18.324110967919292 18.019801248056886 17.61817805951497 17.200913233140078 16.85071652729319 16.62636351794299 16.54881075669785 16.599656795146913 16.73198209920776 16.891277030647895 17.039574011438884 17.170146587530425 17.30159716220512 17.454876490292715 17.63153847563639 17.809305629638796 17.956764046666724 18.05613673346166 18.11619040263412 18.162463565209638 18.211626791568555 18.253035041594003 18.254346280351882 18.185884483675668 18.042232077506466 17.84413929017196 17.623743370352862 17.41027518646989 17.22785948200764 17.100007772464952 17.047655815328124 17.07765092517404 17.172441587757913 17.291829411780487 17.38707794696177 17.42097959914806 17.385655146705297 17.307064575285906 17.22788715505339 17.177135173578232 17.152025187056193 17.129027294530434 17.090425801506992 17.03786891765553 16.98298803908087 16.931129748331546 16.87806797076781 16.821822243073587 16.774057263711693 16.75674330105988 16.787835808586145 16.872238174506247 17.00642018111433 17.18865067537764 17.42113798927843 17.69906245851717 17.994451715510717 18.25035610555552 18.397158284870795 18.38664890518996 18.221384512178705 17.95536599316583 17.663401716035246 17.402942667579538 17.19690434383565 17.044125710309835 16.522731599524786 16.594661974024078 16.748227911438534 16.941758453726443 17.105287128022862 17.17066757976663 17.11353310229884 16.97329947802651 16.833166608279907 16.77707783532273 16.85662151740668 17.08269158391576 17.42938773391895 17.835052530354208 18.206772190136263 18.445563698637297 18.489979685825293 18.350504845472187 18.10883447015327 17.881520591302376 17.769573328146407 17.81911846422566 18.008589583529904 18.264445555936458 18.493873752086284 18.61748989258334 18.59248496395871 18.42405192391159 18.160042426152536 17.8649620588596 17.58583229057093 17.334749481397346 17.099955109961538 16.87143283362702 16.657253004012805 16.48017124556916 16.362806185743036 16.31652265569046 16.34175058007498 16.435243892642525 16.593765179509074 16.80825694144108 17.05289440035863 17.28119168792655 17.438999097845187 17.489520914143444 17.431204743104104 17.29424017453363 17.123169239322795 16.96533388980149 16.87073990399184 16.88775766066976 17.042942819097647 17.31847418932807 17.651133656707046 17.957731945697194 18.168965311537253 18.251652011393784 18.212785890352965 18.090255454333178 17.937127953699328 17.803294093332497 17.717931300871143 17.680234816283257 17.66607870925768 17.64897936396056 17.621878519143838 17.602297789092336 17.61306790143806 17.652436295468675 17.682755321226274 17.653454987262197 17.54007049229176 17.364987509685378 17.18494140924096 17.060108489157265 17.030245139879636 17.112335730164755 17.313603073378236 17.638679303412665 18.076097655802684 18.574563297090855 19.036611607787698 19.346000647341246 19.418192994945972 19.24523401150223 18.906157599744642 18.531292229826047 18.23812906856404 18.07825072525298 18.028084775066404 18.023701076821453 18.009365938126525 17.966731306442714 17.91290578926444 17.878108456951885 17.88228984249282 17.925031763431868 17.989970970851516 18.053885515924584 18.091828534119546 18.080342496337792 18.00554667885006 17.873990838862127 17.71370756048231 17.558476226756518 17.427645956397107 17.322454050287153 17.242883889884425 17.20518013535561 17.238570493901854 17.361888952109545 17.561011946535828 17.788292286974666 17.98754377391527 18.126408597258102 18.212478907990747 18.285306485147736 18.39257654937527 18.56158354485438 18.776656460071667 18.975968026284153 19.077260664755578 19.0243635038613 18.82610681409414 18.557129541121398 18.316001810463888 18.171836062184397 18.139755396702924 18.194926579633076 18.298305161995202 18.406568005415718 18.468853779708656 18.431395471155966 18.257801701949585 17.950822496245348 17.557724068856853 17.155453795541987 16.82549024754301 16.62977478708771 16.593695713429714 16.69956394792232 16.89403054617007 17.11019171436763 17.297330099825114 17.44129189515588 17.559509805055637 17.67448164744817 17.789502607706098 17.88660976453851 17.945371506526367 17.96512982750997 17.971652239589055 18.000939801382504 18.07215688334264 18.17172707096006 18.260695232871356 18.298024225813933 18.261326245551537 18.151864178305807 17.986350449765112 17.78838872447977 17.58738667502724 17.419360616483363 17.319061882834664 17.303438590552695 17.359643740765957 17.448900456650538 17.523832804701517 17.54915422161702 17.51681054141277 17.447595536858305 17.374268090202715 17.315244044358007 17.262197953183808 17.19503724079155 17.108053663112372 17.018772814157206 16.9522312170674 16.92012349275143 16.916446557123773 16.93111145389013 16.964135138305117 17.02473649367884 17.118716511031707 17.240614800760607 17.37973223197393 17.53221607521796 17.704006457658892 17.89787345056085 18.093541181697976 18.23972752346843 18.27152775919708 18.146714541663574 17.875632124357942 17.52045548355204 17.163038925540036 16.866488307372602 16.658853061269642 16.544347070445724 16.298048877671757 16.454641508703833 16.71903936045331 17.03789574066736 17.323411940423075 17.48887322969403 17.495451950567936 17.37570298978688 17.215191632725215 17.107518533258894 17.1160175553118 17.26143348333703 17.52681006596841 17.861378766130876 18.18309896685544 18.39658010375708 18.43211117457394 18.285222866428615 18.027720092264076 17.77890826590732 17.65163182778182 17.70232539687699 17.91087596981419 18.19774143314384 18.4629309875534 18.62242379527017 18.629415756333056 18.481992883676032 18.218480002902066 17.898166563471932 17.573848793505743 17.27322215690913 17.00059514764904 16.752939771199937 16.533913984773832 16.354909065995837 16.226079161579865 16.14945685123781 16.122550473145992 16.148197441613924 16.23823706695804 16.40344803010964 16.63566270077163 16.898351513382327 17.13819869813945 17.311383557522745 17.4026948889157 17.42311998169807 17.395190235485146 17.346177351161842 17.312636542887162 17.338052014177528 17.451384008620323 17.642447359874645 17.86074679635977 18.04236738851715 18.143482418366222 18.157089745575536 18.10709620757975 18.030469759749728 17.961176634642882 17.920767256911276 17.91273057595847 17.9205490039973 17.91528711460187 17.87451985712341 17.802338103114955 17.732680494793023 17.705945341170068 17.732410628867832 17.775045437316393 17.77179078654541 17.680372865049943 17.50820745630868 17.306941731165672 17.14206200926947 17.063245354190233 17.095137667374782 17.24785054255253 17.526616023460438 17.921899695597325 18.386383323621228 18.825745743141272 19.12250389827681 19.186115132381943 19.00195016433505 18.647577745929027 18.26007265257514 17.969320157989017 17.838416021134318 17.848190091720095 17.929275365595224 18.011814458903483 18.05847093779173 18.067923061973165 18.05852122135871 18.04932226675147 18.049792571033517 18.058621937134664 18.06559777262957 18.053244756563082 18.001419847686517 17.898157512689206 17.751285890882382 17.588488677864877 17.44130888373998 17.326611619701545 17.245060695545483 17.198259569643312 17.203537344639226 17.28695631334962 17.459304316605486 17.697208775020147 17.94685811824468 18.149891927149174 18.273709094907698 18.326002321850556 18.347514522052943 18.38989940981247 18.487385125066645 18.632163877927304 18.76896966498445 18.821180920868702 18.739774888263053 18.54210274806045 18.307125001230226 18.12674112898528 18.051786554969297 18.0750777775037 18.155731955743835 18.251078681293507 18.32650360370291 18.347795590898762 18.279083376525627 18.0957503866335 17.801676852605908 17.436479313674994 17.06765846152726 16.771897782845663 16.612570857621566 16.619363196449278 16.776227360807567 17.024973379057062 17.28835829188768 17.505340605963344 17.65706806871023 17.762675283789246 17.848524388411132 17.91995011346018 17.960162623576124 17.953089077587787 17.906873342990405 17.857159617041745 17.847304604174674 17.90156119994014 18.011435446833268 18.1423927421951 18.252542151260407 18.309525242085943 18.29740562122724 18.21549659446082 18.076708416273206 17.908830142335336 17.752899824138236 17.650495441644487 17.622746398201098 17.657064678395084 17.714275106687683 17.751017648581833 17.741732165966297 17.688736470422025 17.6161750901357 17.5495562292254 17.493292507725734 17.426679811655966 17.325749233196046 17.19111995459775 17.05385897018859 16.954459255693873 16.91656593077002 16.93875182397697 17.00696186961555 17.11041494876952 17.244325507663746 17.401004799051623 17.564238319677084 17.71609913896849 17.849470451317067 17.971152916368787 18.088210528224963 18.187264036931737 18.22669222760641 18.15408662394987 17.940170292894226 17.604160725679872 17.210025997380676 16.835687951491018 16.539053360079414 16.34601383488036 16.263645283158617 16.315082773668696 16.500826982951825 16.804808735974515 17.17269516437822 17.509944306779907 17.72037292482343 17.75570154821246 17.64140355434689 17.46052415902952 17.30885881040007 17.253770169755008 17.319338315433715 17.493156329431194 17.734441261660052 17.976068499879883 18.13472759017748 18.141551885305834 17.981436075010222 17.712942891045444 17.449569708582292 17.308511711304774 17.355334809265894 17.576691389210342 17.894391083326905 18.205739947827457 18.422034860229925 18.48960555926954 18.396091414528776 18.16738175605099 17.85461868023887 17.51296897581975 17.182345769196168 16.881054188435847 16.6134599629603 16.38181568945606 16.190760394527434 16.042959523245095 15.935646409614812 15.866621448191335 15.845092671941538 15.893895765910857 16.03595158341479 16.272997482438665 16.574692998815234 16.890033127670463 17.172701389004782 17.398379325685106 17.56213047401058 17.666601052689348 17.719654439674674 17.742606755138144 17.769816520311963 17.827982227828777 17.912446824155623 17.987899838420415 18.01655543900895 17.98876331176991 17.930221798536433 17.882591588125674 17.8761140042342 17.915386733906022 17.98336388732518 18.0525695140475 18.09341004409373 18.081340991328553 18.008343975878578 17.89508906249928 17.789992534881982 17.744541473171243 17.77563130289518 17.846121916585705 17.88533506469703 17.835550185670478 17.687946076042298 17.484408433415076 17.290466522047506 17.1627595337727 17.133895609437793 17.219375278348135 17.428266071666535 17.7564413993815 18.16461476847419 18.56633684441439 18.84731892685161 18.91328527302156 18.741474035319925 18.402938905139536 18.03478787969895 17.773136216716093 17.68798238903857 17.761259840697107 17.915838268302107 18.06700755895742 18.160695802325073 18.18303049557754 18.14868234062544 18.0836808287517 18.012945470770923 17.95326464564033 17.908602733748495 17.868262715423747 17.812067650466986 17.723690570257116 17.604537826698735 17.475555786726176 17.362815027614925 17.28012589663948 17.22771725673817 17.208372243232755 17.240033723501632 17.34669452414276 17.534694645840435 17.776824076085944 18.018358458881902 18.20178079940199 18.294229003119842 18.30150627150681 18.26359915693344 18.23564169316557 18.259949435475033 18.33872138997547 18.42528092629236 18.44899906259668 18.3651423889217 18.193391597802794 18.009879335164957 17.89548465465854 17.8835150459512 17.949327398385 18.04173569431193 18.1184656156501 18.155330223990337 18.134921312582872 18.038704982486884 17.853149552750338 17.582691198573464 17.258538383930876 16.93706479308619 16.68714823855601 16.569950156887433 16.616837773301956 16.813363156462206 17.09933472444526 17.391700245834773 17.623424207844394 17.773872690851572 17.86563271780251 17.9303554105606 17.97620660517322 17.985919256765303 17.942193257601218 17.85329356742695 17.756149262731284 17.69652599270334 17.704307063253825 17.781628665712777 17.906984002940902 18.04709489215682 18.168110167208347 18.242870879413072 18.255557634062747 18.20637750106114 18.115723870569802 18.021654189994635 17.964225136239918 17.961475547255862 17.99571847620904 18.02476209415136 18.010487111984066 17.94264134233519 17.842460095202973 17.74572597259607 17.67566159991887 17.623340300912222 17.552952820615058 17.43181377869092 17.261043140283018 17.0800652504715 16.942314976622455 16.884603378364304 16.91412879828219 17.017518139854484 17.17652466290085 17.373968699421763 17.58941324775818 17.79656628778294 17.97049906841773 18.09924809331753 18.18652078875196 18.239306975320368 18.250176533968325 18.192089436402043 18.03400380470531 17.766770157898353 17.418737635147348 17.048073936784952 16.716792153080426 16.465915150973316 16.310661208240404 16.256394423719374 16.565264112379378 16.73283396899096 17.008315854546368 17.346238293048522 17.657805572980795 17.84924046524626 17.870790941586726 17.742799712124775 17.54171095920022 17.357643767895315 17.25343939214162 17.249343410789333 17.33236248228915 17.469318015735578 17.60998469302761 17.690262154490593 17.651817864789887 17.475503637249645 17.205502396891845 16.94132483959349 16.795259566430257 16.838064410660774 17.066251626591676 17.409542685286997 17.76771573274172 18.049227368385242 18.193410257323595 18.17715933447215 18.013275386856943 17.742072652955855 17.415706190050845 17.080021573421458 16.763246986621 16.477244364540738 16.226704632846577 16.015204843947355 15.843848202337357 15.710361148949405 15.616275188451505 15.576588839121113 15.618914479012627 15.767784751198862 16.024653501735727 16.360565785073337 16.72909655061162 17.088364108425527 17.41278251626223 17.68799809811355 17.901318449793408 18.043244519891225 18.11866335942536 18.14882762388792 18.15369767573281 18.13190186911468 18.064449602306972 17.94301278472949 17.794891223638203 17.67804223605057 17.64741066148574 17.719674944378703 17.863921921028396 18.02190120810291 18.137799217332944 18.17678290835092 18.129328986758473 18.010832033453234 17.861691403755543 17.74072846967245 17.701842699849 17.7603333577306 17.875308099580224 17.968900660620836 17.971660983072027 17.861057821756816 17.668787174359217 17.457670593092455 17.28832991822369 17.199966040425 17.21409016050569 17.345327162052982 17.596762188629747 17.938819897978174 18.295002481684442 18.556967042345487 18.62928852668454 18.481898906660668 18.177397665603657 17.848612488390003 17.63253134188245 17.600964652074996 17.732972593774683 17.941455193118525 18.127301185569358 18.223660395524377 18.21127948151496 18.10936964997543 17.95716876735497 17.797614759297865 17.665329483634192 17.57741390469191 17.529000819060876 17.497937892571997 17.459261305946686 17.40192395659307 17.334859819401526 17.27631900754278 17.237505250547088 17.219415603578287 17.22609181624236 17.2750418287924 17.387746310579267 17.567956069375303 17.788830907814518 17.99965755140273 18.14738930947256 18.200291468049755 18.161969511812817 18.07072606701183 17.984112673055133 17.951228189341318 17.982800874192137 18.039388901846202 18.05475114296967 17.98540835975936 17.84863751837109 17.713574471997124 17.649968977788422 17.678833635248584 17.766018093552308 17.856320685770772 17.909910345840604 17.911329215086855 17.856621288472994 17.741639061808918 17.56282934089374 17.32620079983562 17.05612672869871 16.79734751970535 16.60698072284143 16.538058029274755 16.619193189810467 16.837476355903792 17.135379429744564 17.431100692743634 17.65763726476445 17.795388269564327 17.87051030328125 17.919560084673567 17.95376477429431 17.95481988274275 17.90064703342727 17.7929216591262 17.66247305482141 17.552499334138854 17.497378660341855 17.512115195498644 17.59283918468761 17.72133155538642 17.8700094025164 18.00804807331299 18.10940075607204 18.16187106457584 18.174090377454952 18.173991731896788 18.19285885905328 18.24037144349352 18.291145447272534 18.299393741747107 18.232666268472467 18.097117650242467 17.935016966587362 17.797116209642745 17.708452096197117 17.650743039841725 17.57586790962249 17.442851040378947 17.250597110991414 17.041534348854057 16.876094263108733 16.800329375124672 16.829763751936785 16.954709204131213 17.15400835048975 17.4023952403578 17.669874160680955 17.922011385842147 18.127229140368062 18.266718385829595 18.336799783335096 18.340028558428397 18.273975194627372 18.13033185046907 17.906521195302204 17.618923077820643 17.3051048980828 17.011955730194412 16.777042376694403 16.61579164246008 16.525379132149553 16.50375592273803 16.982651544426425 17.109743374344358 17.31430099007131 17.5650246539903