# vtk DataFile Version 2.0
Really cool data
ASCII
DATASET STRUCTURED_POINTS
DIMENSIONS 200 200 1
ORIGIN 0 0 0
SPACING 1 1 1
POINT_DATA 40000
SCALARS temperature double 1
LOOKUP_TABLE default
18.513815229741375 18.163725684337575 17.779757712874435 17.3810804767901 16.969532194835992 16.546733980259948 16.141475956601678 15.8162829077851 15.641120723111849 15.656564810083793 15.857258344296955 16.200297872749033 16.618374809681864 17.025764562370853 17.329376393664926 17.457596424497144 17.393610824186144 17.184714117046962 16.917611541349256 16.679713780769575 16.533328376686665 16.509723244165524 16.611030972222995 16.81048214373567 17.054775258154322 17.27701287451077 17.4214513481314 17.4691365778327 17.445096761851875 17.39581662991268 17.351275475427503 17.30370217462252 17.220928272545297 17.07931450176397 16.886897361822218 16.68354952860436 16.52633936523839 16.47163023721114 16.55736942708129 16.786959018445444 17.121451870006464 17.487804808316724 17.801523435668983 17.991735430218835 18.018103377830155 17.877774857467635 17.60323119293749 17.250289973720072 16.880883907271578 16.551610447989397 16.311858135709166 16.20161723329256 16.23967303425299 16.408719120424216 16.653952374276926 16.902270208195404 17.090973823454423 17.188140205300115 17.19615037119269 17.141890936684884 17.061284311000307 16.98501416113844 16.93173333642302 16.911574559711624 16.934104212620074 17.00951236719797 17.138910243585638 17.303098001458274 17.463566195252437 17.579011210614233 17.62631822992219 17.61142032848529 17.563784172605942 17.5191163641464 17.501732520229556 17.518349143970976 17.566462967935756 17.64794216262766 17.77415688549355 17.95733060162927 18.195495842442607 18.464393625276653 18.724239698390775 18.937021213814884 19.08222754438066 19.162242736880188 19.19606981048484 19.204368201956687 19.192624837259352 19.143311334178797 19.024807623444044 18.81298185540974 18.511744711427074 18.160565218848877 17.824628782917085 17.57101311695169 17.442920926890444 17.448234888695126 17.56771519567881 17.76993046698165 18.018019357020272 18.270035309491185 18.48514338254829 18.637471864594595 18.723172335932702 18.748571982665588 18.709552783654704 18.586844037675483 18.366923442843575 18.068702056150833 17.746581857725932 17.46296032242098 17.253789750527282 17.117375309682078 17.03354239273516 16.992502887317553 17.008028201051992 17.108307385631036 17.31615378437678 17.63195769913405 18.024788296284203 18.432414219201846 18.772587400738956 18.968233041016425 18.980562251469173 18.830889903910524 18.591975611263326 18.351521589229034 18.17365143282863 18.082517627020263 18.068818964694675 18.102557878534714 18.14119130306547 18.137825400007856 18.055644964606103 17.882839655204712 17.63692514771049 17.35622779164616 17.085639476723333 16.862760895452354 16.706981644004163 16.615665249582868 16.571598866694654 16.559267786147633 16.580706800278033 16.660423330606754 16.834059726448412 17.124996011813135 17.521476680266176 17.968530036867055 18.382874342560672 18.685611199407653 18.83252325032843 18.821102268110604 18.673780359266047 18.417720816390094 18.07970468218496 17.694938019296846 17.313589792102984 16.992263953292106 16.77391728558831 16.672272942395807 16.67346859349127 16.75176250770313 16.88384228598418 17.050518094922694 17.229412065958083 17.390689546826916 17.503466800736245 17.55062573765898 17.54172530901095 17.5118532390908 17.50229615851606 17.533763273984796 17.591797827580997 17.635856158616296 17.62415139050352 17.534873923746407 17.370853077127872 17.150257882375 16.895901259617194 16.632721707430356 16.391307883016914 16.207873780590862 16.116707646734543 16.141491244272395 16.292483495445957 16.568141132707673 16.95504241758014 17.424167196227575 17.928011429111514 18.405146308389437 18.7954505788575 19.061141130963026 19.2004242498358 19.24129011751301 19.217174253608597 19.1429454524559 19.01000684597294 18.801671860735425 18.01169498391762 17.720251634197215 17.417168044402167 17.113657540403423 16.803037998184298 16.477610342328802 16.15656805538315 15.894754535802239 15.75933703473788 15.794629054885892 16.004285022716275 16.355893686753276 16.789958861520226 17.223528963199755 17.56154520975853 17.728009832956833 17.70197424080961 17.528317361121566 17.293145096219856 17.084394347416012 16.964676734681877 16.96345260364773 17.077712036175168 17.27326362958649 17.49045717012364 17.66089721769816 17.734250910968083 17.702823217039175 17.604283946210856 17.493278131757872 17.400378604160665 17.313284835312142 17.196163371446563 17.02698834130766 16.81990657706877 16.620045428491387 16.483166643312003 16.456494177407457 16.565780761338356 16.806702721557535 17.141393027621383 17.504219695444814 17.81720439874372 18.009258066004282 18.033279541762596 17.87844307902642 17.573991533306042 17.180167955698778 16.770027621029975 16.41406882797864 16.173355027844373 16.093317148325376 16.190464068468692 16.43891401853264 16.771993262766735 17.103737071419392 17.3584958028191 17.492680545771016 17.501695622078536 17.41400303308405 17.276578845750493 17.136857923335658 17.02887026568772 16.970024336534575 16.966666044838465 17.019363333282218 17.12177480285675 17.255969783724083 17.39166984150428 17.49383469777184 17.536626293381048 17.51646420331546 17.4551310887049 17.38878238198962 17.34962755953404 17.354391778018933 17.40771473753006 17.514558967256658 17.68774238174056 17.941125967141236 18.271615143017428 18.644669271223215 18.998112972377697 19.265393168396315 19.404420040765938 19.415193039557792 19.336636139083705 19.223152363312717 19.112665755069834 19.00572957994616 18.87026554071709 18.66882495684656 18.389631966009613 18.062024403515128 17.748001846002243 17.51503445701454 17.40638636016021 17.427668579385703 17.555130377070878 17.75213306766006 17.97794298356037 18.189552191410503 18.348385883055712 18.434025746637964 18.45086702693135 18.415559574170164 18.334991001933926 18.19918571326761 17.999391211068644 17.753281843109786 17.50925804218988 17.32181084574988 17.218717515236854 17.189247093249186 17.20269665817643 17.238865627467415 17.304591877975636 17.42725858365009 17.634589706695344 17.93371479066586 18.297629049910118 18.66402625233192 18.950132921407484 19.082674679172793 19.03225289727747 18.83170319804575 18.56228605702745 18.314490982455176 18.150839980674643 18.092240430854833 18.124598964007824 18.20870055999615 18.2870047487288 18.2960367047564 18.189105315949856 17.957776267744528 17.635997056360896 17.284463258312716 16.96685626122957 16.729704136467724 16.591022351074447 16.540049473818257 16.548421347798662 16.58838873691481 16.649696162645526 16.74601308388228 16.905720961348575 17.150716978801245 17.47518274682961 17.837467674665184 18.17237623586245 18.419336899671226 18.548076467133527 18.562226588356268 18.480699889968825 18.317611784047017 18.080125943593657 17.78286047131697 17.460268570273634 17.161400746621897 16.930136619208227 16.788387349877652 16.735557977152006 16.760408512797547 16.85044999798285 16.990305730230116 17.154647560028003 17.306852773972395 17.40864827708529 17.43737627168054 17.400856878219432 17.337288156709395 17.29460905097294 17.300210982448554 17.343741644422416 17.386896461962145 17.39024875847836 17.333953063201793 17.219422560837465 17.058514078474204 16.86531330681094 16.65787048250327 16.463484954660476 16.316767111412158 16.249542278013845 16.28218557257468 16.42309207106429 16.672242825113493 17.021000962404877 17.44632362998755 17.90492043828526 18.335452147590914 18.67370747293586 18.87658120959187 18.940253270048988 18.897264262410523 18.791964692539203 18.652774961391014 18.482401914335053 18.27005583514831 17.47017012532936 17.284832466424458 17.114557554586998 16.95562267416137 16.785527720794367 16.58172774968944 16.351526623904 16.14349728471815 16.026436603640967 16.054087926936575 16.24413074245988 16.578188100214465 17.007253612057593 17.453413950485412 17.820247260266203 18.024369511308215 18.034483378169973 17.88758477057596 17.66897474912075 17.472785987231816 17.36923877788202 17.389644672730046 17.52419312924658 17.72705640332618 17.929294562747053 18.06051271666512 18.075651836186726 17.975920322469538 17.807282474110202 17.629765025248886 17.476914877227454 17.339008280785144 17.18355295781123 16.991847761210167 16.779386099027512 16.588652892841186 16.46765513893136 16.451982233518894 16.556547664061235 16.773340671054967 17.071357860416253 17.399207077864997 17.69231520862819 17.88505252285593 17.926931677396013 17.799473327547997 17.525200012789547 17.16095967342591 16.779548920046285 16.45329760103899 16.246116564691267 16.20592354353722 16.349719493884308 16.64926869940107 17.03321231124415 17.409551887428858 17.695980119670804 17.842868100312504 17.842620004399766 17.72621351463948 17.549101017429333 17.37026440379464 17.23270151988086 17.15477473112231 17.134875763776048 17.162564151957387 17.226822179074656 17.316608333096664 17.415350497326003 17.49678422888677 17.530862284918662 17.500191899325074 17.414538355213026 17.309025992674894 17.22621753164212 17.197536702205817 17.238366849735804 17.356854790971685 17.563889038856633 17.87035187567286 18.2692206498575 18.716862804273564 19.133740140541576 19.4310806941082 19.5496359405784 19.48783558540144 19.30227939506089 19.077801136834417 18.882518974069406 18.735204795367554 18.60576614261299 18.446539323291177 18.231125808212955 17.975543072444115 17.731162766307875 17.556783875993403 17.488793156580822 17.52821540528761 17.649066571211506 17.814621018949357 17.986529556475215 18.127149062361216 18.2058696181349 18.211360965258486 18.15670919354788 18.06646859297909 17.955179050091502 17.820059424117403 17.65692921966179 17.482411508027734 17.33717660329458 17.263490409802465 17.275948861357456 17.35198048855391 17.451217319026036 17.546743670399362 17.64285540059685 17.76930106869636 17.95994512657842 18.22846854793689 18.55120393967011 18.865516884503823 19.088662017056603 19.15298006870722 19.04133220953154 18.800286260333035 18.518711073087577 18.284835959659887 18.151921418670945 18.130678526337263 18.199332621338232 18.31254988795258 18.40635191557564 18.41133741658951 18.2786723395215 18.004293886848707 17.632780805322366 17.238276700605052 16.89603912976414 16.65899950339447 16.54566617608737 16.540636578125536 16.606620566328704 16.70373105276799 16.808608299924682 16.923819840788656 17.07071809889442 17.269166763206176 17.517481668429813 17.785847740954395 18.028181101571718 18.206059634588335 18.30764716555648 18.345464029887612 18.335379670560325 18.27783756999868 18.159516412329726 17.972674369149576 17.732313848005173 17.474644844147083 17.239628988880952 17.054905690743844 16.93366684292321 16.882189432254563 16.903543356157353 16.9917669509432 17.124018496550583 17.2610161978853 17.35872598924159 17.38697171033314 17.345929043327583 17.268478614971958 17.201407437888466 17.175022339077728 17.1849236478205 17.201243392098263 17.194371324527896 17.152316876601557 17.078235909600984 16.97841164179624 16.857213359927986 16.72350380984093 16.598070226462607 16.510406229080825 16.48656584169054 16.540511627735093 16.675910509645142 16.89241005417738 17.186288179012916 17.542558702392725 17.924944443085966 18.274571121197962 18.52515787466536 18.63086206848851 18.589405992263092 18.44162893312094 18.245418231109213 18.04372814293521 17.850564026693775 17.660875446052028 16.95603540008749 16.901112064789544 16.892522856999037 16.907411078736594 16.90169384659153 16.83299211126182 16.69435824521139 16.528944252082447 16.41045242620675 16.40593816767754 16.54981988813499 16.83901559296907 17.236206410791 17.670859379403954 18.047704518462368 18.27612407325321 18.31121707236656 18.17780193954796 17.95893087266264 17.75791188488685 17.657716392323792 17.69510370036093 17.853856433741537 18.074991491027745 18.278916538997017 18.392373098392554 18.37357437581846 18.228079914284756 18.004330088563425 17.764479875907533 17.547371620791186 17.35258511132878 17.157225807360646 16.94719457199125 16.73508077931912 16.554239875467438 16.440262069951515 16.41630958658842 16.48912822651113 16.651636080701728 16.88498782369373 17.157364667227075 17.422548981998688 17.62434188068663 17.711065446600667 17.656091907235695 17.47114196519471 17.201660628013077 16.909346420958233 16.657486895679245 16.505273886690922 16.5008367074358 16.664352489256185 16.971017779142702 17.35199418811614 17.717414312945685 17.98758231000306 18.116209750002394 18.09925717999754 17.970700260230966 17.78806718191266 17.611215801931948 17.481434258566292 17.41075931185121 17.387145796108012 17.391012316723334 17.411147441968367 17.44832425197379 17.503503368666884 17.561416665534068 17.588305718705595 17.551487291345598 17.44546446856304 17.300723175347677 17.168123414366598 17.09405694154421 17.106224178036346 17.2170194198247 17.43486702369551 17.76612274357966 18.199414070515335 18.684953879027187 19.132389260672948 19.43835328746269 19.531318005496324 19.407791133850964 19.136927856910113 18.82707455236066 18.57139246272992 18.405651381983553 18.30415538915672 18.212509044561745 18.090909017385215 17.939094937311598 17.791652034424796 17.692609569935517 17.668722422064235 17.71815040750988 17.81736602762577 17.93459705877161 18.03764731113739 18.096773320586788 18.091200404915373 18.019702420527782 17.903367520260915 17.77194031037433 17.643855443238394 17.520500777608476 17.401166594992382 17.301760969497796 17.255249221481648 17.290281472569188 17.406381198396907 17.568779890968813 17.72962857208863 17.859052044663045 17.96217156474258 18.07269413848726 18.230462296644326 18.454958252966136 18.725739261809114 18.980698211422077 19.138542442792968 19.138806015146454 18.97783922139956 18.715689096697243 18.44581257925289 18.248324796953057 18.160270420090235 18.176868047763282 18.267613065038457 18.385652026480766 18.470040118938353 18.456312930639573 18.30069037104333 18.00334665085952 17.61245371189376 17.20597395176861 16.86360665747402 16.6426022696053 16.563906205824225 16.610392376280245 16.737317256667836 16.892574522249763 17.039717346951306 17.17168070543632 17.30516810299773 17.459244296591052 17.63495938739145 17.811068171697794 17.957795826650436 18.058078030282157 18.119400527287155 18.164795557479863 18.209499913590676 18.24413472049186 18.239637003277938 18.16921543527612 18.028013075409973 17.83522463570283 17.621109549933088 17.414029992266656 17.23790317172931 17.115537822990966 17.066417235264662 17.096196725532675 17.18741713506688 17.30135427393894 17.391615674912288 17.423382053329558 17.389889492176415 17.315790531919472 17.240650299714897 17.19111741935488 17.164728096533814 17.139952918655172 17.100196458617507 17.04643152921203 16.989281497874096 16.934459393298592 16.879404552275815 16.823409644936078 16.777659563623978 16.762439128790337 16.794567413057642 16.879239475419972 17.013826808555716 17.196711039889124 17.42890564962943 17.70390320728914 17.993167517905526 18.241574606736716 18.383289625508503 18.373455939325538 18.214927433666816 17.958511651448582 17.6747143487353 17.418615701248854 17.213650507158626 17.06056689531992 16.551015356063246 16.617719198838078 16.762443821381527 16.944409994439983 17.097155209840896 17.156958853481473 17.10152883331087 16.968260614496195 16.835883809724283 16.78465601352444 16.864799816457044 17.08711330354004 17.425594598965027 17.819214163362282 18.17805012891262 18.408044693171778 18.451610532648402 18.31923899101853 18.088693983123044 17.87102884560517 17.763044464979835 17.809714516863078 17.99149621272803 18.238609234166677 18.46177302243252 18.5838216628298 18.562665264378854 18.40240078906599 18.147826014748695 17.859813319927063 17.583596590355164 17.332387805120437 17.09699792400349 16.869093530497537 16.65653798041479 16.4808152855387 16.36367830240252 16.316773602487025 16.34148254877346 16.435059997016157 16.593638897237252 16.806844229474212 17.048196549316494 17.272356783839115 17.427685822622703 17.47927615356538 17.425295428036033 17.294136493104983 17.128957205602482 16.976728392315092 16.886664888345795 16.90487035880224 17.055539852231135 17.32081099733972 17.64034677457905 17.93508798358895 18.13903772509594 18.220483096637388 18.186035218748756 18.071705829210728 17.927649877239286 17.80064179461932 17.71790746543852 17.679028860982278 17.662414888003422 17.644498517856533 17.61927934515174 17.60249145205723 17.613877372846407 17.650500732539758 17.677121688555147 17.647222929929246 17.53837068707388 17.37132625728742 17.199129041632492 17.079016525123897 17.050242496042056 17.131141231782898 17.329923823449025 17.65028513005805 18.078906023827916 18.564451611852213 19.012797105472092 19.3132178718086 19.38580640858658 19.22335908747006 18.900737668133907 18.54119801018868 18.256396164876133 18.096619839835537 18.04150337980181 18.031761975846265 18.014461262932798 17.9711053346064 17.916854081531728 17.880115420573972 17.880487633369206 17.91863785684824 17.97963566466876 18.04109338905855 18.07840402281473 18.06857903532409 17.998210787913568 17.873296398667897 17.719807310116096 17.569216786214877 17.44027816078796 17.335659242103535 17.25691391788534 17.220021946548727 17.25221296816954 17.37055522869773 17.561341637477206 17.779756857204866 17.97300805458318 18.110351021876472 18.198461605810255 18.274355117912958 18.382818520175405 18.54905639606765 18.75741071202973 18.94893225825232 19.046090590471252 18.996371552502772 18.80823002365157 18.551612941711866 18.319324514659034 18.17771944578339 18.143188019611497 18.193581975408808 18.291227713721078 18.393005060426827 18.449006886933145 18.407804625712693 18.23524993104226 17.93445326996357 17.550843170912774 17.15844317929332 16.83599593281121 16.643575691003758 16.605912609213277 16.706152494351002 16.893285173716716 17.10351346857329 17.28833146992084 17.433375591918086 17.553808920379765 17.670005586702494 17.785065329197494 17.882515773110995 17.943426733492352 17.966978328936726 17.976693616301304 18.00567088580857 18.071789065332194 18.162943562492476 18.243484085984825 18.275399261656027 18.237493059296288 18.130495157787795 17.970113062734747 17.779329196231608 17.586915179975822 17.42737020438204 17.333165331708155 17.31952193155417 17.373546566078762 17.457992692036566 17.52778253872156 17.549853772885502 17.51728397046909 17.450017315429047 17.37853854420923 17.31976757516946 17.26616195957804 17.19942583151659 17.1141662043455 17.026202791699507 16.95877490667827 16.92367252972411 16.916775150810672 16.929741836950623 16.962607654676187 17.02329600390777 17.11674139053884 17.238008198673032 17.377520597101892 17.531571183123784 17.704569866355293 17.897080693455898 18.088030790347563 18.228233670109695 18.25703365656794 18.135734061357578 17.87469951426121 17.53239870016746 17.185926591408418 16.895740105224885 16.690214535336693 16.57515110155471 16.333883923618828 16.483574948502028 16.735744763187192 17.038559896616942 17.308758382040875 17.465034271070277 17.471316606911195 17.358378555303254 17.206974071350846 17.106243915466685 17.11750276062693 17.261269280955876 17.52055230171509 17.84483308923111 18.15428190007221 18.35812458142046 18.391330214453852 18.250884696316156 18.00547184218996 17.768340411144496 17.646759932853204 17.69506722777124 17.895277439584667 18.1723225890422 18.430227489998504 18.587115125704965 18.596692985110145 18.45625016613676 18.201918590849658 17.890019453115563 17.571204936983392 17.272994420420414 17.001038079613934 16.75370445842601 16.5350559181111 16.356081152175925 16.22676465692714 16.149920792199612 16.124295056628956 16.153077863494637 16.246733026863957 16.41359249432219 16.6438705007234 16.90180750495214 17.136750731797207 17.307153170362657 17.39804220220932 17.419348209401726 17.393137205439217 17.347105220362323 17.31733831393748 17.344844563183592 17.455808475541268 17.63976467609641 17.849059142619787 18.02367968924883 18.1222682388045 18.137888529561625 18.092796009868742 18.021819573224455 17.95699775127497 17.918348233769834 17.908697050419427 17.912543301272187 17.903661319646623 17.86251776118787 17.794007724578776 17.729623529034157 17.705655987732502 17.730247380404673 17.76843899062245 17.762737160122445 17.673974665914333 17.50894328675475 17.31592624973468 17.157035760991505 17.08073838194872 17.11265947307441 17.264028600635616 17.539432100568295 17.927496863585414 18.38046845638193 18.806841178914162 19.09444856833188 19.15772294246821 18.983452797294948 18.645520592817153 18.27386297128115 17.99196160119829 17.86091942830745 17.864315234842355 17.937381803836267 18.01344894901198 18.055798993039783 18.06211711359458 18.04968895557811 18.037301631644485 18.03482467789377 18.041428100883568 18.04719300111192 18.035042802547412 17.985563444049177 17.887293541609083 17.74731438366721 17.591155093443675 17.44826409263424 17.335283889236308 17.25450013437925 17.208870707403484 17.215014589217052 17.29680757630377 17.463574688593432 17.692829613991496 17.93377322519859 18.131282804774273 18.254198039197266 18.309343491892278 18.335107876246372 18.380304577785378 18.476868485866582 18.61669625108217 18.74727448257888 18.796753198196726 18.719561779939667 18.531989091105313 18.30763031425108 18.132764946499226 18.056618757123843 18.074742518841518 18.149854595277056 18.24067516457782 18.312100031690278 18.329780393166303 18.25904819473111 18.07688857336504 17.787824595312824 17.430619177692567 17.07075489299757 16.78239155250495 16.626541554821426 16.631472923548426 16.781516212238255 17.021033076822278 17.276648060716767 17.490248562145513 17.64287073017687 17.750880130999114 17.838057169096473 17.909672396747837 17.95093878230794 17.947494819843314 17.906969948806058 17.86228360780825 17.85372928106108 17.904279393980257 18.006608182550462 18.12882300983911 18.23160669260196 18.284122423296918 18.27092721523287 18.19139860673194 18.058349953704486 17.89880944927491 17.75177968495455 17.655998671119047 17.63061950758768 17.66323255585268 17.71659386264862 17.74961974248383 17.738274577539492 17.685086554792996 17.6129909145207 17.5458133339063 17.487666801884053 17.41968992974103 17.320115244114543 17.18957234787394 17.056631331660615 16.959022607144334 16.919691263503967 16.93875628800976 17.004118848378155 17.105600463556392 17.23775783369035 17.392462335255253 17.554216428838995 17.706289736664775 17.841681788297272 17.965495914118314 18.082414123604973 18.178257875408658 18.21358017647453 18.140079976247762 17.931590080630524 17.60698309852215 17.226537424353154 16.863750913692947 16.574218590474555 16.384228568832004 16.30209205126422 16.350516088235498 16.530667103137368 16.822618306263713 17.173540626321717 17.493852118496942 17.69331486968619 17.726925540391033 17.618794702044266 17.44724653751719 17.303308328718515 17.252010852188782 17.317323617821692 17.487119741479884 17.720662070861223 17.95209800777236 18.10180841537045 18.105640636676505 17.951004488238745 17.69450869138625 17.4438946476202 17.31010555666273 17.355661902365586 17.568832655723387 17.875947387381977 18.178591032326334 18.390371961738225 18.458273880729394 18.369594528894968 18.14884873183415 17.844826957429298 17.510299826430362 17.183958442435166 16.88445014734161 16.617282859565705 16.385516887487558 16.19394418890759 16.04549571229269 15.93849278669734 15.872079252524303 15.85558168789701 15.909915044839435 16.054955372798208 16.290443377183482 16.586686986522775 16.895326824806023 17.172378871990855 17.39406313265457 17.55497658945355 17.657971916986998 17.711843490187377 17.737701684088155 17.76754013317236 17.825393563227205 17.90648087011244 17.97830226865436 18.006322062569712 17.981845325724404 17.928663128814307 17.885367419551848 17.880155315961908 17.917397211380237 17.98088127050009 18.044227073276684 18.0793311487828 18.063788640503 17.991585979616598 17.883549283038167 17.785294785426252 17.74386936100854 17.773548680593745 17.838832885091996 17.87365548133723 17.82412314561516 17.681846871783144 17.486063727424305 17.29888862521337 17.17518399949908 17.14803804986344 17.233982904822398 17.4415844795112 17.76480888277984 18.163436729886346 18.553151548952837 18.82461091021784 18.888791424679315 18.72514522510695 18.401806954199184 18.048939603883152 17.79580138877291 17.709729506715536 17.775044560150885 17.91939867555855 18.061888826411327 18.149820632031393 18.168915321111065 18.13295801526133 18.067338993952013 17.996525209236832 17.936830087418034 17.891955126132384 17.851619822434788 17.796741110267103 17.711908142254863 17.59811815160219 17.474432790838325 17.36503181319859 17.28362097526168 17.23204947452629 17.214288739548444 17.247316162190955 17.352828290493218 17.535825930913944 17.770092269145472 18.00377575303479 18.18238608034863 18.274584252593353 18.285721223677335 18.25381351131653 18.231128336376138 18.257194571913566 18.33325352673007 18.414945043933308 18.43630140284742 18.355991363700458 18.19246901898118 18.016506434543913 17.903937322544863 17.887523091006027 17.946341144886855 18.033213564050698 18.107013069453778 18.142378632367794 18.12085125690421 18.024205525825504 17.840052518468003 17.573763857904733 17.256509096717433 16.943341351082676 16.700759117539324 16.587196280982717 16.632052696197135 16.820919075764937 17.09630739138365 17.379617238382277 17.60732080365056 17.758759923938523 17.85327621845687 17.919360729799074 17.96497760747248 17.97520323433285 17.93484230106067 17.851824239917505 17.76047163566739 17.70367981692783 17.710049259797145 17.78231112755742 17.90056718996047 18.033282157340697 18.148091380777085 18.219033465552453 18.23121509078638 18.18525258342243 18.100836779010084 18.013793344418563 17.96116053260429 17.959159645413028 17.99093771903891 18.01700532793893 18.001598230491155 17.934934866040376 17.836808659064495 17.740688978803906 17.668307802128002 17.611645787229037 17.538054511434282 17.41783628023 17.252287901460647 17.07799418228178 16.944869607922225 16.888073263393427 16.915607682057043 17.015878065197768 17.171663363580375 17.365823027211412 17.578011521160754 17.782824227191828 17.956462098536445 18.087007058705083 18.176565406271205 18.230034884659485 18.239423912022325 18.179597001764147 18.022668857897667 17.76149235103131 17.423676141488844 17.06435909448631 16.742339408524103 16.497317921227282 16.34529626066087 16.29263262965103 16.59214552786875 16.75756940396844 17.024366419391953 17.347999158108973 17.644331659343788 17.82541815442219 17.84493483972772 17.722311861879753 17.52974831015583 17.352807568309043 17.252098742456774 17.248133514315118 17.328764385649762 17.460926648308366 17.59477214181936 17.668504318527752 17.627688907438685 17.45608754894037 17.19715739793569 16.94570330124973 16.807894311385528 16.850728804764348 17.07141561342959 17.4036800637967 17.751622625633253 18.02633585308482 18.168131747207205 18.153946306159945 17.99578873976832 17.732175778470722 17.412920565592554 17.08211909916062 16.767724440948715 16.482516373620435 16.23213866796956 16.02053661528958 15.849198530587557 15.71690761390378 15.626287715880958 15.592057735483207 15.639671515233482 15.790794716587971 16.045334480928908 16.37523373571595 16.73647308889225 17.08905053402163 17.40776640511532 17.678059597284076 17.88780621438344 18.028708896926922 18.10575853220499 18.138342653102846 18.14435930791217 18.122723478666128 18.057093403478728 17.941336421850636 17.80181760156453 17.692561735112697 17.66438301048183 17.73257431996791 17.868178799578565 18.016372411234556 18.124081274483444 18.15793867899731 18.109214088345873 17.993692228070955 17.850992894378564 17.73711613717964 17.701951654696366 17.758428234595485 17.86716216679469 17.954754730907812 17.9558792152284 17.84914388816798 17.66419870796491 17.460505724919397 17.296494649376722 17.211412000231807 17.227668823372472 17.35945825303494 17.607881531814336 17.94201110183811 18.286883725384875 18.538729883819016 18.60757112422933 18.466286369056842 18.175344998422993 17.86089840588867 17.65270446636841 17.61933560417867 17.74201864028188 17.938802607304954 18.115123816085603 18.206166783699445 18.192482740834027 18.09210176677574 17.942976017801477 17.786790768129965 17.656948353362754 17.56979973008578 17.520767034150516 17.489035169903545 17.451145101662117 17.396421735682864 17.332552890497844 17.276104548693883 17.23798343851821 17.220500208652012 17.22869826805682 17.27912698770747 17.391142453606204 17.56732134517634 17.78170420661354 17.986032704535543 18.129961008843626 18.183445686411478 18.150171482770695 18.06682524397215 17.98790799880613 17.95911112668445 17.98952463540849 18.041610912448018 18.053716200375547 17.985901966399705 17.854502487531896 17.72379243123233 17.65916836781533 17.68172052848857 17.761303988455346 17.84665497921439 17.898819850688493 17.900783688339164 17.84703043952909 17.73315894283943 17.556390844470673 17.32370430642317 17.059787111235984 16.808461995882457 16.624745627732803 16.559047073016114 16.637927389044457 16.84833017853808 17.135362584204277 17.4218444960582 17.644541353108405 17.783878088064917 17.862433264330434 17.913055591213684 17.94640799985736 17.946600150156538 17.894069719067794 17.790714995990296 17.665369419825133 17.558876779051452 17.50443194467257 17.517074165168633 17.59351239730905 17.716341743655928 17.85910281414119 17.992354398393775 18.091359067424182 18.144631667645346 18.16028846442541 18.164177764778316 18.184769521733827 18.230378731952005 18.277278153889362 18.283241080942094 18.218305609564975 18.08803207073004 17.931449893527045 17.7956231062746 17.703986300528037 17.64011390083501 17.56018369868605 17.42694846739278 17.239830143914276 17.0384693808926 16.87947459539488 16.80657185893389 16.835311882300665 16.9573364568561 17.152643959542814 17.396542292019568 17.659608664903807 17.908407358818497 18.112324826628186 18.252552855426284 18.324220474034853 18.328542171722038 18.262961131904873 18.120458404354935 17.899959320480015 17.618179917400163 17.311508129655135 17.024901088228994 16.794511789735957 16.635892742875047 16.547663157830264 16.528740383011435 16.995199101334382 17.1