# vtk DataFile Version 2.0
Really cool data
ASCII
DATASET STRUCTURED_POINTS
DIMENSIONS 200 200 1
ORIGIN 0 0 0
SPACING 1 1 1
POINT_DATA 40000
SCALARS temperature double 1
LOOKUP_TABLE default
18.74958097507196 18.2311643890907 17.702257441039006 17.232647110643818 16.79327057578628 16.30736138019423 15.77708864709581 15.331637974816063 15.1288820060881 15.22155394832493 15.542462266117475 16.003988111817982 16.553022237680214 17.111743925724838 17.525974483291364 17.644655816722636 17.451396013307786 17.08235090568731 16.712657786119163 16.43911795123765 16.275234795971844 16.2280163365484 16.32833319082964 16.583911329879594 16.936825334240154 17.270568484631262 17.45737754367719 17.44193693043065 17.30518474364634 17.208183232523496 17.237602209754016 17.321107498301068 17.31141547215519 17.133809542615907 16.833319919971142 16.50955129084517 16.254050929346654 16.14505936417237 16.24921290685715 16.591809650749 17.116773948607044 17.690485273187612 18.165862699700316 18.442203162349035 18.468778235100526 18.234728096958783 17.78758228916542 17.230721825683638 16.669071350764423 16.171649108829588 15.794709618439718 15.60802990745912 15.666475613042863 15.95150951795268 16.35323591169477 16.727485253021282 16.975643172928248 17.07332928602547 17.047415472153222 16.948317988379735 16.832301189685214 16.73673457195307 16.663504050859448 16.603040243820093 16.578121875222806 16.644763786461247 16.838605080035286 17.122509006076122 17.394600579922468 17.55814445547126 17.58385456378515 17.516442314229224 17.43879844328632 17.42311981969779 17.484638861252854 17.5773230761479 17.648613470829613 17.69582914865743 17.771749600029523 17.94364197512552 18.240184517343916 18.619532890189365 18.989640513498713 19.27209267241509 19.439715700963163 19.50758422802119 19.51706430985462 19.518876332964968 19.537331227381223 19.538088329330183 19.443546582834575 19.188710166593353 18.760174166812234 18.208330070135414 17.64879241780852 17.228471753840356 17.042346224664602 17.080377140381337 17.277323307002693 17.587992710795273 17.981733919860417 18.392662330138645 18.719525328390063 18.894212183993492 18.944834363713106 18.95682269815825 18.960372667342792 18.88029281262083 18.61376456721679 18.155405817417638 17.633088694016006 17.214385761313746 16.97826246326543 16.87726360282628 16.818195050095103 16.76347981278758 16.749432598090618 16.83633789414918 17.065089555381732 17.443092832997863 17.94236917557881 18.495810705250666 18.99340494436705 19.2951308292512 19.294573296322607 19.008634180954683 18.586566017291524 18.207551247513166 17.972781969360405 17.887289046868066 17.920352137240037 18.044672944430264 18.20714932543101 18.309744973646442 18.258971751102447 18.032467834911873 17.683350115685602 17.291706033634828 16.933206901528497 16.671983662918553 16.534536000584332 16.490640183195655 16.48038159246402 16.456969431921813 16.41692507650003 16.408417493698924 16.512690493085454 16.802094278483775 17.296381615582696 17.925893998462335 18.53033418914959 18.936366883010333 19.06887615195473 18.973160712838506 18.732292378756995 18.390021336890577 17.948853078311263 17.425389590774603 16.896043917924125 16.4782149327539 16.260820412945428 16.248797076461525 16.375120054107686 16.56745536793118 16.79500159381719 17.052084330568633 17.316548384401653 17.536127922688312 17.646214604148565 17.609780642379505 17.460015203670196 17.30381101988924 17.26400702959249 17.39149779372952 17.62145227452629 17.820611535380515 17.879836709071512 17.770974685089836 17.538585901869595 17.24516056787569 16.922622152836723 16.57617475246159 16.229688670692926 15.942944610286771 15.775450703515189 15.755604660582545 15.891814695475173 16.192416534475857 16.657783174097034 17.259325630564657 17.931594551047567 18.579522586967396 19.101946325903786 19.431291209847796 19.570665009587962 19.592296718724043 19.57395857118215 19.52905294031347 19.409738007166585 19.157573172834717 18.16221742714442 17.722684523176934 17.280835699699246 16.901745361389686 16.561068954954948 16.182821827319845 15.758792226878587 15.400457990708455 15.249464667582895 15.35618789711393 15.67069798518146 16.13269779789268 16.709313415669182 17.325024515783223 17.81164081409953 18.00057895935729 17.86791530818844 17.551702473007555 17.229435037501744 16.997778307312785 16.870864420666024 16.85672667166146 16.980799625180165 17.237460858247207 17.55489183648492 17.809674413530136 17.880040537416168 17.735112884483456 17.490751923769242 17.327922434328435 17.321596008516288 17.370656410000873 17.310488170465245 17.074174291806827 16.733208566377474 16.41368565896078 16.212311881019648 16.18276354244097 16.352302263065038 16.720196369381448 17.23478292809899 17.78814263861716 18.253937016545244 18.52897137873009 18.54364593151852 18.271003640063572 17.75531224558319 17.11095276462928 16.46687663543526 15.919976689679416 15.54577663914813 15.418692483331814 15.583035978059709 16.000207482898006 16.54405233396555 17.06223467587408 17.4410980398265 17.623991291554905 17.605095087936395 17.429261075503202 17.182926230263845 16.95280246533605 16.783893591205402 16.683787674377392 16.658640443486437 16.723751043730452 16.879783870492595 17.093880911046924 17.306808851445368 17.455894652925373 17.49822535724465 17.435433011750924 17.325139570548036 17.250237632958946 17.254740490637218 17.31852031003847 17.39918483434526 17.484508812026036 17.613302769680327 17.857863292501374 18.268219766302266 18.807356632486414 19.347142494387988 19.742880258027043 19.908649454041043 19.847264663135913 19.646205685061812 19.43554551685708 19.30923800035201 19.260554923984017 19.189883845929355 18.982412470049276 18.586530970160183 18.04926591649173 17.504368213760728 17.111021233410085 16.960677914236033 17.02972654504466 17.237429322594885 17.529167475825204 17.876782715542895 18.224994216900203 18.481053569861167 18.578992647358856 18.547203107051594 18.476686308242073 18.41279614406693 18.302336929633523 18.05888534769345 17.674712274300806 17.260904054930357 16.972161895179752 16.885003594512384 16.945462887825133 17.039509551516336 17.103390067777934 17.154922880944923 17.2522151802517 17.454125929292005 17.79468064359138 18.25799345183551 18.76671244272533 19.195607414177662 19.40535397004784 19.30870364132908 18.947342152799365 18.48630428726995 18.103243648589427 17.887854211287863 17.842540007544983 17.945293338065905 18.16710843394991 18.42581861031765 18.577094207921313 18.493109111648 18.15493828077302 17.658168078603193 17.13823371832793 16.70646943066974 16.428940649063 16.313575581488966 16.31458223604436 16.367439943812577 16.42088203911464 16.456710325561488 16.50145542266037 16.615378917804847 16.85640356181799 17.247066656725075 17.74426266753075 18.226385058190157 18.553026714035262 18.668751608695963 18.627082196629217 18.50717751978405 18.33012331924297 18.056810094771624 17.66131734706066 17.198126604894977 16.784468082790305 16.51732602260024 16.413014592162746 16.42602561801561 16.514628635227957 16.671719696655046 16.896274480604223 17.15736015290896 17.391911950830696 17.522838919452898 17.492830582402576 17.311783298234914 17.079462196088315 16.940374639825777 16.97971029089698 17.153362175363995 17.334112100093186 17.418699447535634 17.383794463989418 17.263119937257876 17.090079773771762 16.8670742397323 16.5896463902438 16.29342580781411 16.052118527962215 15.924153326266815 15.925898179482674 16.055979092532315 16.319944861557904 16.72082614236445 17.24036529677918 17.832124298019647 18.416758460553325 18.89056376246231 19.166108246271992 19.22710835798724 19.14526829442882 19.020579950324933 18.897320843531705 18.747457866055626 18.513754379075674 17.48253464639038 17.2140214267108 16.967506563427154 16.783302521289716 16.620913107438298 16.389666540909243 16.06535113706844 15.749353527672044 15.587082926596931 15.64914919093373 15.914055119283343 16.344786154988142 16.921686506040405 17.57514773875808 18.13345329423759 18.408518681678274 18.345694561224843 18.05961929799996 17.730376700581708 17.48448606796008 17.371092179238207 17.40841474972721 17.595965840580327 17.887317997635154 18.18622387721297 18.37241359209792 18.345409532686546 18.099341180102854 17.76580040282508 17.525727266633552 17.44675685610489 17.429347269475766 17.32217582743829 17.069465060253993 16.742331495997874 16.459199522685363 16.30498810587771 16.313197623672018 16.485055252479533 16.80466480489136 17.232748843682327 17.697979465472258 18.10936818342254 18.372818618485116 18.40339172704267 18.15700279468362 17.6728318426769 17.067783250275607 16.472147577133274 15.979851023946184 15.664266236498548 15.603202385443122 15.844249280901805 16.34554840011887 16.976247518387094 17.580926267955185 18.034773973825153 18.25775990129132 18.22264339500912 17.97235432313658 17.617015365492932 17.284546013647283 17.056984788631652 16.949048448843048 16.936173564283223 16.986795926257564 17.07701439273742 17.19814784171435 17.34720742418357 17.49358705000186 17.566391416864864 17.50630513527127 17.333372582235853 17.142941626498175 17.026846685180693 17.015738943504278 17.089417835616516 17.21988078569962 17.41588778423192 17.736680951505402 18.23904945654737 18.888306051943008 19.53408398944816 19.986716843926253 20.116582255627492 19.91721668986533 19.516034204424777 19.111883534062706 18.858172579717017 18.771549754342324 18.73693792304744 18.60616134778095 18.30477505543568 17.875943314246275 17.452009202657347 17.177339974877253 17.12001279657544 17.238165122115735 17.442160411490512 17.67643606266043 17.92207155170295 18.142442453515077 18.26611802433146 18.24382571169284 18.112034372996334 17.964121955116543 17.85135863024832 17.736534298806585 17.55222958876695 17.293851395576567 17.050521028312907 16.94457558170273 17.02943921711723 17.23777196661532 17.44357121327036 17.573743048959777 17.6449495744435 17.724662062333206 17.890504957853032 18.195774599936307 18.629438292357058 19.0993236981727 19.45965284916556 19.568219333169775 19.363040488515743 18.924246194084525 18.441447479793155 18.086643208101258 17.923079642720097 17.931973806814543 18.085789458836256 18.35244018816666 18.638208229078177 18.783964484740288 18.655496092576215 18.24323523909102 17.665996245369683 17.08434887581191 16.623010245550052 16.346795042335405 16.257993041718287 16.30926325335925 16.433852965298623 16.567865121603326 16.671257821976624 16.75249197742904 16.862362641724207 17.050239775498433 17.33249291437269 17.678340059450903 18.00355496446842 18.216223945867586 18.299231090675445 18.320770789646517 18.348568838014355 18.37108673264705 18.305271717135923 18.08293468408805 17.728254197034065 17.342927770748695 17.022442784126497 16.797205032708536 16.65202188287522 16.582800823452114 16.612100667603627 16.751754646840457 16.971905789870807 17.208818641291657 17.3817517877535 17.414619169272278 17.281581192611426 17.05059702700436 16.861141360857765 16.81712409602258 16.89839194412809 17.002167406930877 17.05365794445475 17.04981481112502 17.017646172408774 16.959974649368537 16.848743017806672 16.668243472451277 16.459955583622627 16.303369830105357 16.249893422442696 16.29862388340084 16.431358621794327 16.647111885737804 16.957840774533047 17.367662883931374 17.854181679954966 18.34578617752673 18.72334080591017 18.876551229823814 18.78330258520263 18.535712941122718 18.269262498135774 18.059301418739317 17.89257910220504 17.71348316307991 16.75607105937849 16.70661315324739 16.729201812862424 16.82348619105213 16.911018739944627 16.869521546343428 16.651790956489293 16.35303523944849 16.13693528221564 16.111551130763836 16.290583193201318 16.653578217551885 17.187105754219274 17.833954620690427 18.43431344320488 18.785534261932888 18.786593653923187 18.5071029107099 18.125637922048362 17.817618543238325 17.691106796321353 17.78132867201451 18.049632848151663 18.39396393007531 18.690897953102 18.83208012245715 18.745418524121234 18.441768343569272 18.04644173686037 17.724698832627542 17.54547050294114 17.437765841598736 17.28521770033569 17.042244827601458 16.75882455773322 16.522362285118927 16.395668949903527 16.3969860116967 16.51376602008525 16.72616155387329 17.01543136887262 17.355267107532228 17.699644719923946 17.970245666707566 18.06763785304561 17.92788635090243 17.580138505667325 17.131752154972933 16.691353641164167 16.323847836705383 16.08605360392037 16.062841939694422 16.320717455923713 16.83102466427969 17.46694913944266 18.07163217276891 18.515271580764104 18.714357174762252 18.644349839834245 18.353822067819316 17.9597914700508 17.603780393323465 17.383198527165085 17.308634884671765 17.322195087191304 17.351471356212297 17.360088280322017 17.37391241625177 17.44980819498959 17.589956947282335 17.69803359557189 17.65456650818885 17.43503288609861 17.135312941654323 16.88912612059853 16.782111945026426 16.824112659967927 16.97708959438489 17.220924411809268 17.595480979158967 18.153304491651785 18.858458825676703 19.55082134198091 20.018356630181607 20.105433152277584 19.797399310603826 19.245678804847312 18.694964905178708 18.341421884372146 18.223663078464686 18.226585408366653 18.192140452538606 18.036763675931972 17.79034774647655 17.55713379194319 17.442506125186245 17.48494494061823 17.636887252738305 17.817858333028283 17.97950243451412 18.10777368923901 18.178723185499713 18.14584553725943 17.988469914601627 17.759843033957527 17.553323161760257 17.414935837561607 17.31167848785879 17.191782245864626 17.060698258652174 16.991471414886554 17.06802326232306 17.307891692699908 17.62543603765859 17.891760733009022 18.040518383122148 18.10017940458993 18.151001965870837 18.281892988031878 18.553705276062797 18.95421311298551 19.377351691492127 19.658985739721594 19.65717034781584 19.343760491005217 18.847149442321992 18.381622438481877 18.100820625264262 18.023155936760567 18.092877484092416 18.269421264206677 18.52309146338206 18.76974535298697 18.866914838842597 18.698868210918572 18.265156624925037 17.68191034448195 17.10301494587389 16.649995925989465 16.391416730991384 16.34015596303262 16.457686737612125 16.671013364878664 16.891686105082215 17.05152592071887 17.14791453176668 17.238255022007934 17.375102028909087 17.563580748142137 17.76720993489422 17.926762380685847 18.002052822606007 18.02401941445794 18.079028963232307 18.22149184702128 18.411535475340848 18.537176423545613 18.501511899289646 18.29608109759887 17.99095552270046 17.664302325180604 17.352846714100195 17.06844243977681 16.842200779443193 16.727835084520784 16.756763862684362 16.9072410630653 17.119657444069986 17.31637915280286 17.41377062705307 17.359764686996208 17.187846306150703 17.013335678910934 16.933149861924186 16.934514228592207 16.937389714723004 16.90464431675087 16.869061431379063 16.869331887405654 16.89329404557888 16.88808412635309 16.819913987980044 16.721609744914563 16.666246524221712 16.695572261966056 16.794361389054608 16.928184273117882 17.088799682072764 17.301302490361525 17.598233954719287 17.97851088672626 18.36628024825772 18.618500102408987 18.60733641039452 18.319932020773148 17.880402922914904 17.4598780615035 17.157407075095346 16.96944135960192 16.846520210150782 16.11699271766957 16.26398948086151 16.551587186869504 16.9366156859215 17.29146409704912 17.453229923644425 17.34829248083583 17.064806860998775 16.78598765938384 16.659671113231074 16.733633267570035 16.998150707903136 17.44241419707012 18.028366136838656 18.623477716367756 19.022682234311862 19.077201353038696 18.799204040773166 18.354011239009605 17.963410068499034 17.799519439580777 17.92088749052335 18.25629597285657 18.653824062390726 18.967857510023155 19.10354370211676 19.011560378305667 18.704016460080094 18.280521268606073 17.881694320377534 17.587016414985865 17.371846474122385 17.16525295736486 16.930111284423067 16.688045434846643 16.490035974325412 16.374990500341884 16.346733572814397 16.38246190606487 16.46393925166746 16.598478915735992 16.80908241719499 17.09740892621296 17.402515396910037 17.61178057946821 17.640975166296087 17.50340699993227 17.284282469640445 17.054411650207317 16.83680587469335 16.667294165925313 16.641369109656935 16.85226827043379 17.29221738881837 17.842293162440537 18.347082073269284 18.684432165739633 18.79449296654339 18.683276338416082 18.412048920711253 18.08243544267137 17.811007124443666 17.67889575483145 17.681871729671176 17.73701375099946 17.746654164645424 17.672121208391403 17.57270172598904 17.55943714820604 17.67199274040943 17.80779662079102 17.80575219782146 17.59623934042766 17.253613247017537 16.924823724248583 16.73260185431044 16.71715453438194 16.844244139876885 17.079666823290843 17.4496458790927 18.00170868175425 18.702025726337467 19.393292927938266 19.85784167351598 19.92443016341774 19.565168354054855 18.935202798364564 18.30139519913141 17.889215944484544 17.7609634121606 17.814374185183272 17.89475702801628 17.91103409696749 17.867138684256645 17.82240947820348 17.835864524341 17.92481200267419 18.0570305630635 18.18315558469876 18.271248159770547 18.30518906358262 18.260507572482318 18.107885150534308 17.854739560362425 17.5710939913257 17.34530707749599 17.208059672673027 17.11873825460354 17.03559332408798 16.981829835739 17.03007952307333 17.235849469521778 17.58089729139915 17.96001241558569 18.245795512032327 18.384670395174656 18.417227457775294 18.429605418326187 18.511944643344673 18.727000878554747 19.06551498766109 19.417957409702474 19.610730049374098 19.507209142636377 19.11603249700677 18.611928396017785 18.222415934399702 18.065215798884616 18.099625065237685 18.227216488925265 18.39740597385906 18.59379413349598 18.7598108858815 18.790633066373555 18.601644342870262 18.194141912277452 17.657951304027247 17.118979558521836 16.69046633154092 16.45398379315246 16.445037016845625 16.638661803900757 16.951325126893625 17.262686947617354 17.47369465406509 17.57550533943998 17.64287766931805 17.74211782626956 17.867625665767843 17.964217517345993 17.980913076249276 17.918842016785625 17.852269625511678 17.883352720056745 18.057594322864897 18.324910170598745 18.57277559202693 18.698942987147106 18.66757037075598 18.505542796728605 18.256185562497198 17.94685569337928 17.603348262657416 17.282224701430057 17.065239150319375 17.005392556834938 17.088896912866822 17.255899410406936 17.43259872891526 17.543541103466065 17.536822426580162 17.430076671090962 17.310325676893598 17.245493006167756 17.207115381156523 17.122091357220828 16.9825526676771 16.860490776806355 16.82521548412318 16.874867874613543 16.946571053724394 16.985471278402596 17.001726365980048 17.04969310682485 17.159385400512047 17.306428789699062 17.44397028672945 17.555964526856833 17.67876360035321 17.87030382744538 18.144840755937764 18.419010109665162 18.533673088254744 18.359106915348573 17.9007746238674 17.30799976873748 16.770646278119806 16.39664140830912 16.185679750264097 16.097164010278874 15.747871730370406 16.0037337075352 16.464943597835163 17.060259009922913 17.61980870801669 17.944640056993904 17.936992799814195 17.673226098367874 17.34525358247753 17.12989817934479 17.101950103175593 17.257341723766892 17.58336446855692 18.061057439193338 18.595322970294287 18.997976946938913 19.089292802489545 18.825036715350212 18.33997528946955 17.878306944127825 17.66264435549955 17.78116294658137 18.152319578949097 18.596461685092148 18.95321626659469 19.133403544364985 19.09603465592018 18.840188887321844 18.429358325841285 17.976484166138285 17.575868945511992 17.254371872926495 16.986833282595416 16.743472229485764 16.52202598115695 16.345836660179174 16.23484396867322 16.17710044469139 16.13764965343792 16.1010966260698 16.10162157785988 16.207549274467713 16.461090767056778 16.815731765377656 17.150354757898583 17.365380152298307 17.455129054685447 17.475018359150326 17.455243753159845 17.380526421334256 17.268371929400814 17.220913088039637 17.349877008120497 17.661741509101336 18.044839681785152 18.355034716168177 18.50077639851499 18.475197598383378 18.33512068212211 18.153380319243098 17.991392211062735 17.902274292268697 17.919492393556126 18.01807161532727 18.109431041351655 18.09641933300865 17.94925388523351 17.750958149854988 17.649913935303527 17.72171790953698 17.877962136659786 17.940556363658448 17.80084229087334 17.492847662762287 17.145387510292583 16.893796568796127 16.804571434313786 16.86035969897112 17.027704221715677 17.32664588516515 17.804905869037746 18.44085375921313 19.09355457980896 19.55085705523946 19.629235732117145 19.279148949497195 18.641520926572877 17.988460151384754 17.56763648455131 17.46612470585817 17.596196311033623 17.80207314245753 17.974992662696646 18.08612989702946 18.1548530347362 18.208799992143366 18.261300192105498 18.310376326771184 18.349920112269814 18.37140030347492 18.354695924642776 18.26415594031124 18.07220772674421 17.799334644782185 17.522408759550803 17.321210251405496 17.209855518807228 17.13596941496537 17.06225841045108 17.030718226112885 17.124666318088185 17.38612244616572 17.77270646346671 18.166876866340555 18.445444826329656 18.5626090776456 18.558769316494498 18.513548819777107 18.513312384007897 18.628319090200154 18.866320401422154 19.129794285865295 19.245452263544482 19.082394765625555 18.676359987245306 18.2309377614269 17.967807361915657 17.957251200693577 18.10049260700219 18.265790257319917 18.403416360754825 18.519737559460054 18.593402965313402 18.562162561775484 18.37151708733038 18.01545131133679 17.545649354904693 17.054794845365578 16.65100065534 16.433941059070484 16.463598328841197 16.727992114804756 17.13310113719523 17.528440551144957 17.786087526093457 17.891700656597802 17.93928829863936 18.015059947918694 18.109262396635433 18.14620794726419 18.06992724011704 17.903259776080457 17.745782646792783 17.70670511899863 17.828751747847033 18.072233160634916 18.35122851785174 18.58096961779508 18.709577968892393 18.720145546801422 18.61273659488914 18.393814663279926 18.090669531548052 17.773530548580357 17.542901466584656 17.465134800563625 17.522983408130596 17.64290543594857 17.751093294952607 17.79755505618697 17.764554978602185 17.683856557703734 17.622066471349406 17.60584538340012 17.57279028326074 17.43878343824181 17.206677631311152 16.975967871849782 16.85271028761256 16.866551896983093 16.965528775209695 17.082421601204558 17.200982841612557 17.348533590743184 17.538498622367676 17.738175590993254 17.891601722917592 17.975351484516963 18.030743180573307 18.129606948933695 18.29398541874767 18.441328260523026 18.421131020650197 18.125303960199734 17.57897775366994 16.933611843824714 16.367910652379507 15.978932082677154 15.761495453477204 15.681619270566815 15.765858567874412 16.01759116866235 16.51115710725277 17.172097315066353 17.81150365560139 18.212204429219717 18.260223370745113 18.014381693415352 17.659038022819477 17.383134238900144 17.27851481625331 17.34059213904016 17.545393526957387 17.883080215743203 18.29829297360599 18.64230675891852 18.73590400762344 18.494425815856644 18.00772728290412 17.508256407447167 17.243154352430974 17.332743095287434 17.711627475149815 18.198249672770363 18.622690631953958 18.88887241186412 18.95049972314086 18.78947939644995 18.435972328346057 17.976540023559913 17.515357980783175 17.12110460926852 16.8052174566643 16.543612969550104 16.319660209093065 16.14350275606008 16.025273424521462 15.9403772426852 15.844946423433054 15.729817395483998 15.6513539095139 15.705847749392637 15.955096606581519 16.358767311246588 16.796276911030528 17.165316042808303 17.445051757382544 17.66216177525969 17.815715829058764 17.866206832616022 17.816279276497347 17.76125126273657 17.81021123440555 17.968590504396058 18.131364347905944 18.182557687261877 18.088733909828306 17.917826559844713 17.781066524092147 17.74950312384365 17.82121921041265 17.95904897069784 18.129137176087283 18.288259099332752 18.369328418950655 18.30911925989378 18.10234397424708 17.844124960481 17.69384458871843 17.74600141783709 17.93126771535084 18.071672188552625 18.030325718688516 17.796790927593737 17.467029994776095 17.174700327295522 17.00897428931582 16.975426931194512 17.047176235508182 17.239812365325285 17.60433934783362 18.139355942785837 18.730296046745128 19.178652806044376 19.291674173634366 18.992971316376728 18.39756081616558 17.772587618145263 17.38370758127231 17.340368781514066 17.562489951224965 17.880517492034137 18.156953404759697 18.332943247652963 18.408262797138825 18.405883425892373 18.351914687818315 18.276256951378038 18.21213052161808 18.175568610614814 18.14743429208598 18.07965375161386 17.931523191204384 17.713538412782246 17.493746353317754 17.344395108323972 17.274152119622805 17.226113556040676 17.16357481152269 17.137346652745986 17.236965476042347 17.49857046751624 17.871926554214134 18.24271867597237 18.496581722184935 18.585521181770833 18.53399250175293 18.40697270301355 18.291397122771322 18.276942270609265 18.40079792570832 18.586793091874995 18.66641363354424 18.509231781956085 18.158888903047735 17.82171083038033 17.696480935718395 17.809276042396867 18.022558506375315 18.19149342739492 18.27788087555968 18.312224988122455 18.3035922794217 18.223472787844358 18.038693762781946 17.733034377227114 17.32494578039969 16.881637488696065 16.50843067852682 16.316745963699272 16.381509381146877 16.699559241686345 17.1710884680722 17.625287303366065 17.91267815507387 18.01344413631393 18.037658209966967 18.09367992120194 18.17732286579508 18.19987102405248 18.09373158468507 17.882125010022506 17.66634333122733 17.550604911660127 17.5778987637301 17.730687905640334 17.96316082624881 18.221442867434185 18.451453719740393 18.604888040006195 18.645766517138732 18.559845793749176 18.36934029724799 18.146497304350763 17.996359171760783 17.983418955371615 18.070750440332983 18.15628327458752 18.16130894828491 18.074555497484134 17.940462111221713 17.831995057922555 17.807294054376133 17.848928313012582 17.852667730021377 17.713786133343415 17.430470724516223 17.111332814152327 16.889145048854683 16.830379744192168 16.91064421171077 17.067043431149013 17.264417937850737 17.50075865266184 17.76701994764997 18.020329084090164 18.20062898271369 18.281560487517375 18.302031165794602 18.32966637857563 18.38324659235768 18.393774870401025 18.251169367058722 17.895029697249818 17.368529377042663 16.79764350031869 16.31700008749448 15.991896874613921 15.803580633938289 15.719136705449115 16.153151595686886 16.315249294227208 16.71421063640305 17.294524991018086 17.876618822946973 18.249789277591255 18.297194993369974 18.058990611483917 17.698241933967815 17.397982407941285 17.254518434460653 17.255416660737307 17.35527237213159 17.53945395455687 17.787219457582843 18.00612814685684 18.05131022235373 17.824260068910274 17.36688301124711 16.86984739378669 16.574570785428822 16.627544994255587 16.997235306435492 17.520204484204687 18.02145207570824 18.389353043660453 18.56617713438207 18.522741957773313 18.267959334740777 17.864905876506203 17.414062178373964 17.00451076815992 16.66942176530506 16.389410326643834 16.14351697909936 15.941159254998134 15.79239869027038 15.670433743249285 15.535949766342576 15.394435184545742 15.314983949234142 15.392353388755888 15.675467982705506 16.117516978392363 16.610400427428498 17.069217469432118 17.471129239796102 17.822662753620477 18.104266259511487 18.264707262685196 18.291272553995523 18.256011905568187 18.245215274247744 18.252971695500726 18.185436246934053 17.970968493251313 17.65100174027984 17.370937123211093 17.28098577662901 17.428722294771475 17.734457787933522 18.06567702510619 18.323370703286866 18.459428260086295 18.454566738149428 18.30772017157954 18.05193802724646 17.785011789162173 17.65000498734723 17.732244546626482 17.9688347259039 18.187143185653497 18.235483030936276 18.07060727175892 17.760703116246958 17.436002322377202 17.203973533181102 17.090068374136454 17.072920861547097 17.163958853321677 17.417792598749333 17.85243815123421 18.379508025268954 18.817878202004998 18.971670339678333 18.739876842916413 18.20792117664081 17.63241343941602 17.292223480585726 17.314013832494318 17.618527798763704 18.015136263723843 18.33424344078003 18.493397757110078 18.490495231550348 18.364937553045667 18.166787641499248 17.952567771026363 17.78226249680257 17.692179343505373 17.671774956077993 17.668152566032187 17.620570208396863 17.509058911805706 17.376403666776465 17.288789629896094 17.264398749017506 17.25534917145048 17.225527971171687 17.22079540092164 17.322401169064324 17.55895465364072 17.88465788441227 18.203962243704087 18.417388557294085 18.468835473154346 18.359689202288383 18.142354255048247 17.91336726129909 17.78762100060767 17.829528274149038 17.979694782958518 18.072690117414044 17.973564717313756 17.71704761019981 17.491436061350576 17.467285868507588 17.64480901513957 17.876364878352213 18.022328147081346 18.056706642087107 18.024854868099837 17.954072864724754 17.83662601454852 17.653291574215622 17.38467207269494 17.033447878325802 16.652442419793502 16.33773497520603 16.193910825750194 16.294385393632396 16.64045124939013 17.13502773010251 17.602587255628418 17.885269779230107 17.96071492632461 17.949913081587507 17.981115941932945 18.063198657120907 18.104228866128867 18.023324805088595 17.82779482622042 17.601304242532954 17.433001581306467 17.36539480674601 17.403717110108843 17.54123964215889 17.757822654040325 18.009972190192478 18.238451807231908 18.389448464324882 18.43509107795126 18.387109802627986 18.306876539089856 18.289726372804655 18.387052674080937 18.535401479538194 18.60006903678413 18.494849203570205 18.248240476674408 17.973947165563164 17.797130510986165 17.777131946886954 17.85867868311835 17.9005465883522 17.78070756790292 17.48921312843578 17.13008195733581 16.844056342147393 16.72207509264713 16.769515596199085 16.94054549886274 17.193102974701734 17.500578487274865 17.830802274366864 18.131981760554524 18.34714676969384 18.452375762884994 18.475534521411447 18.459835616311562 18.408688041790437 18.277557450331404 18.023437976410936 17.654564205964277 17.23215251843226 16.838179300378236 16.539834127190993 16.354122709897883 16.240782730014306 16.161493952259185 16