# vtk DataFile Version 2.0
Really cool data
ASCII
DATASET STRUCTURED_POINTS
DIMENSIONS 200 200 1
ORIGIN 0 0 0
SPACING 1 1 1
POINT_DATA 40000
SCALARS temperature double 1
LOOKUP_TABLE default
18.771231369937766 18.232272249472295 17.686027631964027 17.21132008040511 16.77470557475957 16.286403208007624 15.743482297440325 15.285001924734622 15.081906826363209 15.186987434350792 15.521111648541005 15.990321738739805 16.547996104339376 17.12178594931208 17.548671920871183 17.66439576468766 17.453401376735076 17.066489817274825 16.691050465412317 16.421146973229067 16.25838858658317 16.205586369656224 16.300852431193512 16.55928917861078 16.923428005931964 17.27112597330164 17.46418662728075 17.439601592473718 17.285350344234306 17.18102721649035 17.222598756998284 17.32613384871994 17.325345271246917 17.139829494475777 16.82401073171736 16.487123610349347 16.222503193378813 16.107992048106905 16.21293336223875 16.56673357898439 17.11257320935871 17.708855676318816 18.200555256113127 18.485525483446274 18.513666397955802 18.271645706581253 17.80677846259548 17.228672695499903 16.64809894981986 16.13430362751197 15.742877141540427 15.547102847547315 15.607182861172745 15.905243702561595 16.324119472761733 16.710306866975035 16.9621432500101 17.058322590248203 17.02909714362613 16.92660327684894 16.80901084205151 16.714215434380552 16.640607192988607 16.574714162114446 16.541752918192014 16.605621239338955 16.807313441267393 17.106365507059063 17.390815048182436 17.55685954161621 17.57659698524669 17.501451566981068 17.421128569597478 17.41198155801882 17.486737098332704 17.59024855479308 17.662840482373444 17.702690328242287 17.76934909689586 17.937592712032462 18.240346130284877 18.633258164820614 19.016132611910265 19.305546133133735 19.47530690325787 19.542326804517895 19.54920337760118 19.549592975461728 19.57088489255507 19.57747987107561 19.48647566093244 19.22900487397039 18.789735678578502 18.217947303283122 17.63299601311982 17.192700761664952 17.0006386912827 17.04328123646169 17.24748200506845 17.567675076016044 17.9767023709982 18.4065018954249 18.74669266034423 18.92147240347714 18.963448347851255 18.971312946129995 18.98161806195964 18.91077361095733 18.64147623049443 18.163595646148 17.61559624677975 17.18073756880802 16.944021039428183 16.850333850121924 16.795678325339615 16.740038458011355 16.72397479949256 16.81090896820005 17.042156950275057 17.424977471481647 17.931866424325086 18.496564423278297 19.0088491464575 19.323015124687114 19.322657737268113 19.02209630577576 18.580262865294028 18.187892626705093 17.949368801500075 17.864835754865886 17.90067825105058 18.03328425547622 18.210632041391726 18.327209166017358 18.28044091848807 18.046962798412288 17.685966091300962 17.28242890808003 16.91433475308326 16.64962311950276 16.516428323992645 16.480102986338537 16.475098850294767 16.451488081244133 16.405586281692038 16.387841877923304 16.483803041832243 16.770663125042226 17.27320812403009 17.92281969579981 18.550091646968752 18.967498680350005 19.095574073724727 18.987935578702626 18.736695362900196 18.387291413603997 17.93754299600233 17.399964491701535 16.85400025202855 16.42568912122371 16.210467380873595 16.211441244652725 16.353183005812536 16.557120009706694 16.793138659060997 17.05880158873277 17.33204301313765 17.557584257332255 17.66620541818313 17.617628653636224 17.44793556908245 17.27393565284413 17.22992737301667 17.370767414222147 17.62363727099319 17.84194233155659 17.9080730526469 17.79434819457968 17.55274166918658 17.252824835866203 16.926734595791046 16.57429064263612 16.217115209873217 15.919138138606732 15.743749500154932 15.718990742932814 15.85233578084523 16.153968753174368 16.626403793927384 17.240600825549098 17.928822004617494 18.59290678890125 19.128179182771166 19.464015159554865 19.603148115372154 19.62268378845532 19.606028905444497 19.5655359876425 19.448514723055702 19.192457065669856 18.181091593236847 17.722982217490028 17.26290484403599 16.875537166815732 16.534834311712075 16.153651454498746 15.718777011132648 15.35047669850447 15.201180554212641 15.319572964151076 15.64465012076348 16.112599728205943 16.69922695472383 17.33435041902512 17.838732140477124 18.028311794693405 17.87995110061922 17.547679731096512 17.221701000288316 16.99523433080151 16.87012883033796 16.850983538251704 16.970967733630417 17.23128592726473 17.559720500064618 17.826322041880296 17.898193727044863 17.738116067965606 17.472550554993656 17.303008223005577 17.311521065820315 17.38153117601013 17.32787610660485 17.079188915664698 16.719107785768717 16.38633845259148 16.180495535307944 16.152694071063205 16.328798111968826 16.70946098664435 17.242967522228522 17.81629528222889 18.29717718988829 18.580310164923024 18.59501386283567 18.311350786398155 17.773664938980446 17.103014326836394 16.43566018901705 15.87048828534809 15.48296029886932 15.350607100478925 15.521892398431469 15.956986621030934 16.522050311239123 17.05752819317345 17.447755927770032 17.635948103738023 17.61494383027932 17.429967360485733 17.172540488052903 16.934709265026857 16.761482179722474 16.65751375838117 16.62942243434688 16.695827950833962 16.858235987481475 17.08079336492469 17.300419108431342 17.452439228474205 17.493003199778993 17.42437474720739 17.308621273313744 17.235283862621817 17.24892896556309 17.32210097409155 17.405637365529678 17.48596380697828 17.605403777298278 17.843914689365203 18.26002605840863 18.81757394549291 19.379005868393598 19.789480125879354 19.95852993538088 19.88905245640493 19.673400210661576 19.45094493391733 19.32355872353721 19.284231127783276 19.224503877215604 19.019652237226477 18.61273473164913 18.051954506721966 17.47941177349118 17.0669885599928 16.91334349418096 16.989047884784203 17.203649351429515 17.50179403242397 17.86061834515252 18.225294017951253 18.494901384510662 18.594502387532938 18.554897154629998 18.47901350882179 18.418880748159037 18.315033016484133 18.06885911439948 17.667680783611743 17.231029362787456 16.92863870289909 16.84486113005801 16.918907148696345 17.023989091761745 17.09144360119348 17.141791731696276 17.235894009052107 17.435026554285624 17.776670114034445 18.24695949707223 18.76759536099852 19.2106379032659 19.430516184599636 19.33112245771781 18.95302392633629 18.471985303035307 18.076638842460724 17.857944531275407 17.8133621985032 17.920612900293087 18.15614944102506 18.43718189113612 18.60766839174874 18.526869868219247 18.174674229690808 17.65678738539911 17.11853274380024 16.67556704077351 16.395596688509855 16.28469035892312 16.29177912474701 16.348888112580013 16.403785017153655 16.437860454051314 16.47831425679457 16.58782422824029 16.82687885632123 17.222138502191758 17.7337893258952 18.234281965580536 18.570346484943904 18.681891426057863 18.630709009663494 18.50571369472059 18.329344629067368 18.054905172142693 17.649161980930984 17.169355749653676 16.743227837486337 16.475144662551145 16.378946837444534 16.40106311364835 16.495823829194133 16.658742271837678 16.891819171068093 17.16325578293361 17.407100029494558 17.541881746979453 17.505069945897702 17.305325200477654 17.04961130381706 16.896276454640223 16.93970494836253 17.130510307459357 17.32812430675327 17.421080122984627 17.386933192235183 17.265127999679855 17.092531274206706 16.86902923222011 16.585155246728387 16.277339664617433 16.025966667437434 15.892879826538769 15.892232883789372 16.02077137369743 16.285585287736367 16.690983348399115 17.217931560177348 17.819962609563404 18.417952142575885 18.905577798730498 19.190029675470278 19.251595131275888 19.165888435711317 19.040390892626096 18.921049676668954 18.77586687320413 18.542200378595332 17.492072018548903 17.212252243100004 16.95353777809646 16.764651289472795 16.60438180117414 16.371358653602524 16.035706395747198 15.70717899011468 15.542287157796078 15.611389430656295 15.883788842443114 16.319705316694694 16.90777322161183 17.583604172905083 18.164672608889596 18.446260540694624 18.371773175250517 18.069429617904287 17.732304333136927 17.486960609051003 17.37458165058092 17.411455287637413 17.60167287842294 17.900922256473773 18.210565949053382 18.404979468543246 18.374948236116573 18.11058105875081 17.755068664275413 17.508475910998317 17.443218983817744 17.444407770771964 17.342758037644124 17.07954721055199 16.73680987652847 16.44397169890935 16.288647735158268 16.301575243683914 16.480997544836676 16.81057789596652 17.251258686491205 17.729529987080475 18.151673518106005 18.421807914209786 18.451745329462135 18.193129719230985 17.68607282530506 17.055513003318584 16.439448703667292 15.93272279708257 15.607335445454336 15.544296941846845 15.79586346697886 16.318357474508666 16.973173472544126 17.599196912689138 18.069938443028203 18.30253498325706 18.265116657533696 17.99987908328729 17.62394159602427 17.274927955299397 17.03930404961775 16.929824813470876 16.918836875551257 16.972735903469875 17.065481579524402 17.188188708257638 17.34114912930849 17.495282569233545 17.573926010418834 17.51031442548343 17.325615251261265 17.124966189681647 17.0068902369397 17.000280042061455 17.079589796052307 17.211562388763042 17.403194759825375 17.71984946851712 18.229089044148896 18.89936752607695 19.57091578920411 20.041323754802026 20.172613932603316 19.95698578433699 19.529935968631012 19.104972952310103 18.84687299768611 18.771932123326952 18.753007163649958 18.628174648893626 18.31696156216332 17.866553398703907 17.420219413882783 17.134211242420314 17.080853705701784 17.210160477847563 17.421698160022423 17.65894807452868 17.909592280005814 18.139703617384345 18.27137742665843 18.247014448627667 18.105073714261454 17.94979928429917 17.838623593952455 17.729421239983054 17.54529756086003 17.277577769351613 17.020984721295356 16.909272514515155 17.002909047493585 17.228549154947903 17.447285459218218 17.58056374380267 17.647963345484325 17.72067941149446 17.88056577208996 18.186441127106164 18.62974930020361 19.11533237270729 19.49141824152313 19.60766892002286 19.394491159526535 18.93410408117341 18.42952464621212 18.06371869317599 17.898820951083234 17.909728811765547 18.069356434483247 18.351476075153755 18.66077660498868 18.825205554266557 18.697206980233492 18.266883114511156 17.665168902434242 17.064145161003793 16.592496065662477 16.31462410789798 16.229678170478632 16.285994957819856 16.415156625596065 16.552605629595167 16.656364747005906 16.734685798249036 16.841214472651 17.027133540065964 17.310720053515958 17.66417114737308 18.000006587794406 18.216979545256685 18.29561726376097 18.312939686167 18.34533864659544 18.380083132271526 18.32331208704055 18.09705262886236 17.727376150627975 17.32670283410914 16.998411338867086 16.771463114204145 16.624835253695878 16.553112187348912 16.58280794614597 16.728284939767057 16.957959758959696 17.20593804837768 17.388769025401203 17.424439050137828 17.281278824121294 17.029559927370507 16.822128840332645 16.775239044522234 16.866037140402664 16.980047964768485 17.037012009232395 17.03680794294205 17.010222861238155 16.95907379071083 16.850131492521196 16.66361458294517 16.44463742321579 16.281150915761845 16.22727727576939 16.277831817695407 16.41086798168146 16.626102087896108 16.937196250113683 17.34933131788942 17.84283583194458 18.347539168936347 18.73953394335875 18.899586120340498 18.80100410197926 18.54205578803242 18.269207607011253 18.061499655838105 17.901279771835725 17.726401262650022 16.74374346591753 16.693292909027175 16.715968648830835 16.81680046290651 16.91525450556903 16.877340906447735 16.64890975274913 16.333185801936555 16.106913496858276 16.081828431863137 16.265029038268175 16.632182041974964 17.175856294106634 17.84472699885601 18.471104684953346 18.83562658959715 18.83025158726214 18.532630505784937 18.134400912480736 17.817689347489548 17.690185354277805 17.786623883389407 18.066881311446046 18.42386176244952 18.729877493347537 18.874492467787505 18.78126606935485 18.459023473143667 18.042928044900336 17.713750400380793 17.543966228123654 17.450463987718248 17.303519522634367 17.055399706965943 16.763146402250637 16.52115788062859 16.39434219591992 16.399357384563707 16.520828675755894 16.737486474236192 17.030960821322477 17.375708884122975 17.726818266694142 18.00484216099498 18.10430631274907 17.955105565515275 17.588512814311628 17.121455717116326 16.669081367813657 16.29362924742116 16.048234994848304 16.02227361289305 16.289657931189716 16.82116378819308 17.482328966066486 18.110314194204015 18.572410515525092 18.78098278440461 18.706853768109944 18.398088095767484 17.978575323673706 17.601180304708837 17.371172271242408 17.29822082806849 17.317845802459114 17.350778334286396 17.356761063440857 17.364997352362142 17.442210986526828 17.59494269367054 17.716698739184505 17.673271458115444 17.437532986958292 17.116695198329932 16.8565989829996 16.74759730559295 16.796581880042964 16.95700165764019 17.20246642362402 17.577164297382758 18.144630877318612 18.872467657725675 19.591589821537806 20.077008332956765 20.16329897414335 19.833593233125754 19.24895879186668 18.67142064241142 18.309918068046272 18.202409795574287 18.22067661655326 18.192933727365613 18.031539818906214 17.77199579454065 17.52798707739842 17.412795265042657 17.46604498260853 17.632184162603618 17.821360700195424 17.984116896707818 18.112143463640262 18.184446268863994 18.150139498503346 17.98321909260369 17.740402255252828 17.52495197543735 17.38736573930127 17.28949027709339 17.172157703873964 17.03890297174401 16.96688753469541 17.046979987114838 17.30081952746779 17.63673079185687 17.91406849072285 18.062560041003206 18.115376483297304 18.15787947040408 18.28368720048798 18.55900730696464 18.973417100705444 19.416040436399673 19.7135883544383 19.714100468106608 19.384408443540625 18.86028262627027 18.37272496311008 18.085139526620377 18.01076091762079 18.084792984515758 18.26697071449617 18.533706908136026 18.799517328175057 18.910672288572307 18.74065044527185 18.289727890875152 17.685075254687327 17.09014338215564 16.62878554569748 16.36866491471959 16.32091578647837 16.444758567696805 16.665916640965612 16.893185916087294 17.053813907832918 17.14516324958277 17.230445054729742 17.365424207959105 17.554329643588538 17.760320177894414 17.92177353760464 17.993887139936884 18.00957443163469 18.064795145769477 18.220148335161284 18.431516148259046 18.574641220552998 18.542332013326355 18.326735691614363 18.00676036117103 17.66769093385739 17.34601465947034 17.050156404019457 16.8118985718248 16.69009341035582 16.719109401929668 16.87537806746539 17.097783109986207 17.30775268068977 17.4162148685042 17.362364899779276 17.17771991862245 16.98868779759324 16.90448441716595 16.91016894442682 16.915445467061765 16.881385124337896 16.847442903154697 16.856240346582705 16.891686208960436 16.893010678987675 16.821742025722394 16.71511689128189 16.6552543544624 16.686710476468598 16.78949368801302 16.923937451100098 17.081225669678208 17.28934522998874 17.585296768433683 17.973065172157355 18.37664478509354 18.643614724689915 18.63386628932859 18.3311150159658 17.869708293381677 17.435227646779943 17.131323013222374 16.948954127071694 16.83184436355733 16.0766127644929 16.23119198552803 16.532460065953806 16.93879868956858 17.317064114120264 17.490697847393058 17.378032195217482 17.07483410779115 16.779302798838735 16.64714704305728 16.722044194602752 16.988541511372187 17.43915730952925 18.043375926607688 18.66554458550753 19.084861812685762 19.13972492192348 18.84309767372413 18.372341391027952 17.96280601499411 17.7945202576428 17.927065241596033 18.281681800273635 18.694814548315403 19.01558958469151 19.151020123010568 19.05170863279234 18.7281832150668 18.285903243866542 17.87666881997023 17.583968357179536 17.376320168946137 17.174352854966987 16.938653348090135 16.69352756786357 16.493235840720317 16.378521445984788 16.35256492474973 16.38955418550898 16.46891219667664 16.598819240094503 16.806485398490054 17.098798163115053 17.414163227950212 17.630938608472974 17.656907953976507 17.508524529369712 17.28118374298529 17.049572373447575 16.829524170283978 16.651252115619148 16.617278637678453 16.832361456852535 17.290452379774866 17.864778005151145 18.3918076924959 18.744179557488533 18.85858062182828 18.739921487110706 18.450982810240927 18.098455287491117 17.808248249145116 17.67023558664287 17.680132945874146 17.74617225261032 17.760233302643716 17.678288275883638 17.565444776061234 17.547761948112914 17.67277070397612 17.826662576865214 17.82957845335836 17.605818837499488 17.239547533226904 16.89122299735388 16.692265975178188 16.682485061617513 16.818202931276385 17.05703372884635 17.42859671808191 17.990924165568064 18.71356728259999 19.43109479813724 19.91370828397036 19.979880668242153 19.598339654619185 18.933464257152078 18.2698667681251 17.846367702014376 17.725151496295272 17.79187626009402 17.880247449405534 17.897330125211763 17.852136283109598 17.809186410154307 17.8300868313522 17.931150352191455 18.07516706262783 18.207813657796198 18.296622730354464 18.32839223622957 18.2795164507814 18.117859525389065 17.84952384135129 17.55021010202835 17.316755517299498 17.18140754569463 17.096481194047694 17.013832436571068 16.95831860087746 17.00832271511837 17.223540048170825 17.58604768195199 17.98317546072756 18.27700416953236 18.412505870696975 18.436953297586776 18.442030223628887 18.52143330722505 18.741938655075234 19.09583699170078 19.46828755877675 19.674214450158065 19.565571954616935 19.14964934885944 18.61483823008949 18.207932148751365 18.052984150984425 18.098243245658086 18.23296421863787 18.407109772186576 18.611468067532634 18.789541802675142 18.82868362497767 18.637469428738275 18.21799729936391 17.66700721311176 17.115954863860868 16.67937342668794 16.43963607232161 16.433608203945273 16.636255621244132 16.961980578975464 17.284297618960526 17.49653666132244 17.590428032697073 17.650480914291528 17.749019255185658 17.877100289253953 17.97408778529602 17.985504554000787 17.91223576275278 17.835155191227955 17.86632583742433 18.054644774416804 18.344306708369587 18.612286404155604 18.748060206789102 18.715094689219352 18.545350096138705 18.286518389905062 17.96556998054988 17.60603532884051 17.26617976498561 17.034445702247726 16.968677464198834 17.053917165924112 17.228444173816683 17.417973260071538 17.542778454305704 17.54224315435109 17.430463053173305 17.303076811549946 17.237828898301032 17.202590096277373 17.114208288708323 16.965372057317467 16.838332733933814 16.808946968929416 16.87185008372415 16.95456626168605 16.995271072820653 17.006851144248003 17.05195544120706 17.164250163927093 17.315825509633086 17.453818476990588 17.5598418555788 17.67409501796618 17.862559675708333 18.14614204654994 18.438477054943164 18.56669598163925 18.387308035914053 17.904690825639722 17.281617411080678 16.72411116940051 16.34471540734278 16.136518603035892 16.05215648235346 15.688740028558643 15.954507813887764 16.4375455006321 17.06532040960715 17.658479530582454 18.002489762410566 17.991030851296067 17.707306231697608 17.35874330530749 17.133046815394803 17.103279548662364 17.258210723306266 17.585852442272305 18.07615404316978 18.63596892764938 19.063970935114213 19.16360305205381 18.884318750139123 18.369747102329935 17.88146800893937 17.65658883416448 17.786653649214763 18.17959654272654 18.640504843752165 19.003290347472067 19.183118368001132 19.141439023332463 18.87484702705077 18.44784516159845 17.980407843142647 17.57249396384191 17.250272710368687 16.984596058213967 16.74258454394851 16.52115445753165 16.345089397305717 16.236447389808983 16.182158026096655 16.142451078964257 16.098324175577435 16.085914758149258 16.181652314570044 16.436772737782853 16.804272041642218 17.151727401089623 17.37043883435691 17.458017388690653 17.47923434342367 17.46545500552796 17.391182577125782 17.267697778506527 17.206641392956378 17.334402559936073 17.66043018178366 18.064039232438006 18.39048726184433 18.541984256233235 18.51151133797855 18.36057849869257 18.16626830042597 17.991830133184834 17.894298269589644 17.913583524540353 18.025181269144465 18.131795763250953 18.124700185001476 17.967500975639666 17.749297831081478 17.636047367904123 17.715038903916916 17.889339724911146 17.96200223517911 17.81566396930686 17.49009372068823 17.124836410139732 16.864589771397387 16.777833152918564 16.83923665409287 17.007202734521854 17.304419193922005 17.788729981877815 18.44290326028993 19.119831994435504 19.596274093945375 19.67754805768596 19.308636672891573 18.63776976526214 17.954340727945432 17.520566195063836 17.425107318614135 17.56963375541355 17.78778253092031 17.968914478799462 18.08744456334002 18.164587673466485 18.227291939710636 18.287171581385465 18.34100177870644 18.38306464027813 18.405705281770313 18.3886809251527 18.29394824187902 18.09125531469838 17.802626399012873 17.51225474728925 17.307045170821013 17.199960158265824 17.12905117092565 17.050566924762535 17.011823139259604 17.105443205742084 17.37699924272823 17.781454554637182 18.19233039774225 18.477106938897585 18.590370288130373 18.579441568563404 18.528058834613258 18.524146338848446 18.641408643929545 18.890913066206373 19.171291332910283 19.29646709500189 19.122877123790552 18.688039924530262 18.214152390701813 17.942729533297758 17.94546194591341 18.106784461817004 18.280546175341616 18.418987051914385 18.537489334648182 18.616485811378002 18.589439270595456 18.39865515188546 18.037566970816602 17.559053589503158 17.057485879644606 16.642983935838142 16.41907964876733 16.450199202155023 16.72591734692756 17.149246351132696 17.56048655418068 17.82119557018252 17.91752964808806 17.95636512373077 18.033047208627277 18.133325855451446 18.17154871466578 18.086295236049537 17.902902750288344 17.730558489444373 17.687758808049878 17.81837781592472 18.077601196601183 18.373251033838514 18.615969001841567 18.75229775955376 18.765974348764153 18.657454528301873 18.431618428333007 18.11394478098078 17.77700506007719 17.529599974872347 17.44497475353278 17.504594925456157 17.630617291319908 17.747539960691054 17.80326558086058 17.77501944856453 17.692901737762227 17.630273451827893 17.619647776279923 17.592289480274903 17.453319856345328 17.206246999091103 16.962237204225058 16.83717180266863 16.860592478003312 16.971631991602663 17.09417230207592 17.212051087690465 17.35908061906878 17.55279014668366 17.758321712749424 17.913226388411896 17.990009173354903 18.034269998199076 18.128321768909277 18.301389341684473 18.465794890189034 18.455920371058642 18.15124119697341 17.57782243264767 16.900587973590053 16.31326193264964 15.917108478655413 15.69980851535791 15.620354348022259 15.707085823529273 15.963558817795763 16.477781260636934 17.173355250836245 17.849486393850427 18.27263345693496 18.320173368965833 18.05606745588665 17.678798650376947 17.38988599685981 17.28221029429416 17.343426946839433 17.54697603984045 17.89120381010272 18.326800588745467 18.696673959927633 18.804728416327013 18.55494931244657 18.040818368170946 17.511413486800596 17.23192331843152 17.329406368531604 17.72905816792055 18.23361038619609 18.666430972394092 18.93546085184221 18.9975092202236 18.831421702002782 18.464888837915872 17.98814486819165 17.512432187261517 17.111041293190926 16.794736158599843 16.534972505842948 16.31194611836669 16.13736500290075 16.02421584919243 15.945241385188293 15.84933188765238 15.723026049655951 15.62621606126898 15.666164061518067 15.915509648808905 16.333014833686104 16.786178146819367 17.163788558989026 17.447438637412134 17.671148703796643 17.83390151153441 17.885947711200256 17.82431151807018 17.754581237131184 17.800703667622308 17.969888319958773 18.146014167942123 18.20157136299747 18.099308959854195 17.912925549344205 17.764170770737355 17.729878405548845 17.80544074980323 17.9500091565178 18.131136556136028 18.305993080068852 18.401816839268903 18.346663855107664 18.129050062276644 17.848610849135518 17.681343735837523 17.735453259143597 17.937113776391172 18.091852599397985 18.052551246550884 17.809851070461093 17.46619146361385 17.163931642571804 16.996890194597572 16.965462545506938 17.034798294552147 17.221205849531007 17.585084787699397 18.13158093171153 18.74308141279836 19.211488962783875 19.331983409796898 19.019970086663086 18.394812713475453 17.74025093582896 17.338563314399817 17.303098493904745 17.543835061019287 17.879317783623986 18.167854604681814 18.3522287697204 18.43400974952155 18.4358920131197 18.382599435703455 18.30465849407225 18.23898639371054 18.204026310405645 18.179109428239986 18.111428020429063 17.956347328777014 17.725909132862025 17.495593921285415 17.344650589660336 17.280326221263664 17.234962580284275 17.164549868117263 17.126818732043102 17.222818521623257 17.492158031407808 17.880913789486343 18.26638971231914 18.526561126516075 18.61372640950806 18.556709517796424 18.42199274328912 18.297120547555405 18.276765032540325 18.404991371727785 18.604239668515135 18.69248753100171 18.525257109317586 18.14909367561939 17.790653694784375 17.666857342492253 17.80067273542255 18.034642217198254 18.209932580080064 18.292736660020743 18.324337706342245 18.316534479075532 18.23859914151329 18.05614004171739 17.75039926975806 17.336276757576826 16.880769339072234 16.49316230324328 16.29125703594833 16.356064901055856 16.68686809338495 17.180531208483895 17.655059161434846 17.947997886938893 18.039075940290683 18.053042646585208 18.110315953098823 18.202684758484043 18.22904486145784 18.11469575838781 17.886030594286503 17.654389573873505 17.53174656830683 17.56081395101835 17.720518829165616 17.96325554110067 18.234243979374014 18.47749610661201 18.64184567893181 18.688394842164282 18.60061458833731 18.399759908345338 18.16100112603902 17.998608586324863 17.98483909586257 18.079585442003765 18.17180634844149 18.178640141340406 18.090137048701195 17.95266132483347 17.842286232796717 17.822603223137452 17.876999345428818 17.891672143982092 17.750494564981345 17.451217162635054 17.11305323450174 16.8802858746337 16.823288800599443 16.91179352075756 17.07439091512817 17.274169243441403 17.513040702212802 17.784985134138708 18.045343847037593 18.227812794320265 18.301848261660282 18.311048815702303 18.333565510719513 18.39379086637717 18.416639155232918 18.27951171275531 17.914077991182953 17.365736866953668 16.770211313433233 16.272846197541185 15.942255007579728 15.752948235401853 15.664631404466794 16.11032608282971 16.2674714769231 16.678405526562138 17.286865824532732 17.901412092128137 18.295932483754786 18.345238145450963 18.092136527477564 17.71091396923574 17.397634650776798 17.25256736961314 17.255592566735725 17.354521244142504 17.53963731691754 17.798590384775387 18.036860219722254 18.096934260823726 17.867440828465753 17.38822852215235 16.86194040134005 16.548247876474466 16.603991069840475 16.99216097083462 17.535068040776927 18.04903744192969 18.423779696903033 18.604409154208593 18.559761005930444 18.29560043632508 17.87651041483986 17.40988443487729 16.99206156407774 16.657112703402603 16.379618867324275 16.134069663465503 15.932578529152172 15.788938112233714 15.672522503180373 15.536062205926454 15.382093025907178 15.284835110437058 15.349803431017326 15.634680475232898 16.09024967073063 16.59809353773194 17.066851685599094 17.47521389374108 17.83453947547599 18.12538025359613 18.288601215709864 18.306738805726756 18.260486871475543 18.24842193812271 18.263817520333838 18.20004280878939 17.975263354245513 17.63243654314631 17.32939414086167 17.230513139878912 17.38813130891308 17.714676864075614 18.066549530511704 18.34047444836083 18.48840451542045 18.490468620768034 18.343140080165934 18.076004119453636 17.789375940368856 17.639045368745194 17.722661063059657 17.9752012582473 18.21032170172945 18.26588014805385 18.09642330089884 17.77358272573975 17.436263473554604 17.199446229885552 17.08603737435687 17.06617553390195 17.149296958342827 17.398201424935422 17.83917233227933 18.383576793211944 18.84262967215952 19.00840581538445 18.769149834353726 18.211053305093877 17.6063793889282 17.253040870641627 17.284069107939608 17.61047950056542 18.02757797116946 18.35865952322999 18.521800241104657 18.51853275256944 18.39067167178843 18.187887910756277 17.96713272606643 17.792420591141617 17.703286067134542 17.68828621139574 17.689840409688724 17.64176347929819 17.522708164256684 17.380890792099176 17.290576758404345 17.271434737290804 17.26613725186511 17.230345516771916 17.215618574532662 17.31372645512813 17.555805860339092 17.89310860042174 18.224686122550597 18.445535383951594 18.497774503205978 18.382849807759804 18.152828387197133 17.906345993376785 17.76644910793333 17.807578584179936 17.97041909926591 18.075434360561903 17.97244299992523 17.698196933788143 17.45984118089847 17.443258348404033 17.643405956378352 17.893276972653105 18.041530276404746 18.068476289802238 18.03091714254104 17.958788406826724 17.842430965885068 17.661714235419954 17.393534871383462 17.035364944473194 16.640209576251486 16.3096328093983 16.15497147291082 16.255545750951864 16.615370973892414 17.13405660087317 17.623980341492548 17.912891510309702 17.977064243883262 17.953115205890875 17.983832773631534 18.07568634909923 18.123883760950893 18.039357411506177 17.83167649081834 17.59305565184162 17.418479725356253 17.349300253370618 17.388413315839276 17.530207560496287 17.756119684479952 18.020954555867075 18.261181318946907 18.41896764339448 18.464679992126783 18.410014057101396 18.319201598734576 18.29683339571745 18.402108751250747 18.56580807650344 18.63884128562843 18.527736585816154 18.265821517875956 17.9767578130907 17.794946899752645 17.78445963250104 17.88550183873753 17.943938877947776 17.82646635437504 17.522143959264852 17.143467010635913 16.84201637994817 16.7148827056452 16.765226288228913 16.94118231800945 17.19832373834858 17.510974859370496 17.84762476263292 18.154579977770794 18.37050556387398 18.469576086680096 18.484650275948365 18.46633692820086 18.419392051090096 18.293049927410777 18.03774191096797 17.660950580794378 17.227268142292502 16.822390376425727 16.517521801663964 16.33117273146043 16.217400121299804 16.130639658910706 16.770598970462686 1