# vtk DataFile Version 2.0
Really cool data
ASCII
DATASET STRUCTURED_POINTS
DIMENSIONS 200 200 1
ORIGIN 0 0 0
SPACING 1 1 1
POINT_DATA 40000
SCALARS temperature double 1
LOOKUP_TABLE default
18.00947445955616 17.835655765807502 17.640736521258656 17.433064037083415 17.223731944739047 17.02648756133405 16.856721406057424 16.729412954210776 16.656284260975365 16.64283055350849 16.68615182908232 16.77445048770408 16.888667169588942 17.006113066338276 17.105314274198417 17.170822132008286 17.19663584572901 17.187208914402273 17.15570212678451 17.119984748001347 17.097573971433267 17.10099056919357 17.13480424923625 17.19504300828582 17.27087748677956 17.34782948501227 17.41140230175266 17.450080791581023 17.45704818838206 17.430532304864276 17.37317997863588 17.291064532478032 17.19280054408158 17.088891753865823 16.99109534724712 16.911450400517634 16.860761054710096 16.846660815994436 16.871730398956995 16.932315283163067 17.018592746142346 17.11609574003073 17.208442872611688 17.280628153301677 17.322040879132746 17.328473960503718 17.30268622420124 17.253480903977643 17.19360881868077 17.13701554363297 17.096019862171723 17.078976612522137 17.0888752427376 17.123154963848673 17.174764876167053 17.234189197618004 17.29188549457351 17.340467679954205 17.37607573333027 17.398673726668232 17.411374525715367 17.419150719440978 17.427369474000496 17.44050199852934 17.461201735022353 17.48982101594572 17.524386422324657 17.56104569837412 17.59496598836958 17.62156535193355 17.637825212336832 17.643339945631773 17.640784233016415 17.63563104886788 17.635172733790828 17.647090023294368 17.67790901478461 17.731673493057112 17.809079272362307 17.907215893675744 18.019958903234457 18.13894400871854 18.254926205359734 18.359210273915927 18.444794927975014 18.506956346991053 18.54320642223131 18.552817187962976 18.536278383802347 18.49504609176202 18.431735783746824 18.35061402572158 18.258012658420583 18.162258738738732 18.072903534912157 17.999343102225932 17.94919117603244 17.926867357338455 17.932773720506166 17.9632209943146 18.011041662580112 18.06667928065696 18.119503394813403 18.159147737622725 18.176753491743522 18.166058492022287 18.12426712180699 18.052575510329987 17.95618166715862 17.843665229835263 17.725800984143365 17.61409158869016 17.519418077871755 17.451107114879463 17.416439674231707 17.4203513757351 17.464995033276015 17.54902609427486 17.666826560341665 17.80817880263405 17.958930337867592 18.102887017021775 18.22465164606425 18.312634533581384 18.3612567912026 18.371576133287835 18.35011636273477 18.30633090178176 18.24958792939171 18.186649131519506 18.12033755220063 18.049621889353457 17.97089484545239 17.879932850607066 17.773929526353214 17.653061403052487 17.521220560727556 17.385791321991537 17.256610214307464 17.14446452299094 17.059578705273964 17.010460761044737 17.003254084096874 17.041469545664498 17.125804856879945 17.25379946351498 17.41931163348841 17.612099948901644 17.817951651413292 18.019702033426846 18.199163858380647 18.339605159098923 18.428180237745114 18.457738606427068 18.427664765121182 18.34369242834799 18.21685400056532 18.06182401526202 17.894934469253695 17.732139213429544 17.587199426820295 17.47032444506873 17.38740874221615 17.339879886800357 17.325071828617887 17.337003217643446 17.36745467032209 17.407243115000195 17.447543418333815 17.481029891301425 17.502580749865082 17.5093769328213 17.500428567002068 17.47578671923933 17.435821950110977 17.380902355114866 17.311608168783543 17.2293799584669 17.137322274912254 17.040829758457924 16.94775841906676 16.86798863623222 16.81237899944781 16.79126384784633 16.812773701476885 16.881321601270606 16.996574679550683 17.153126504498122 17.34094178547653 17.546505519843652 17.754493876911333 17.949690367392982 18.11880032521872 18.251801895327894 18.34255961687575 18.388628540801353 18.390430350534608 18.350173255594523 18.27092133835423 18.15609350370215 17.828415894572604 17.67415641102346 17.507033297067718 17.332485965645947 17.158249315659727 16.994784952720988 16.854777887063978 16.75146183818767 16.695943152160005 16.694166850075188 16.74448610558263 16.836784386283046 16.95372310905361 17.074058825395024 17.17729538847144 17.24843302020676 17.281433573798665 17.28032689340527 17.257574035720477 17.230159498482006 17.214600655609345 17.222374369606023 17.257062500884697 17.31390170711711 17.38162779585941 17.44581566808889 17.492559730336055 17.51141316510011 17.496943258004222 17.44886057985831 17.37117931611902 17.271060146244803 17.157831065731333 17.042310565492162 16.93620576927314 16.851224028644037 16.797679387682095 16.78270083941448 16.80847787224294 16.87114352872207 16.960813807931455 17.06299974890672 17.16119615613632 17.240078459027075 17.288538095489827 17.301821593652875 17.282284723837677 17.23863359529912 17.183878704008507 17.132486569084136 17.097346003217236 17.08718298281919 17.104971742247805 17.147693860898933 17.207491355951795 17.273894942161707 17.336500180675902 17.38734443727803 17.42237324752763 17.441724480983616 17.44895347984526 17.4496070279361 17.449635556645173 17.454029882919674 17.465883155182123 17.485924942483745 17.512510640223198 17.542052777462786 17.5698789316097 17.591434771093738 17.60362472364397 17.605966105713676 17.60121079423454 17.595201074422185 17.59593606972095 17.612042606177027 17.650986504995103 17.717398565224837 17.811850584600556 17.930340955585745 18.064647441179428 18.20355503206823 18.33475682848163 18.44699967172164 18.5319079411269 18.584976368539543 18.605504553403975 18.59565417208873 18.559152606013736 18.500261263969705 18.423413446742448 18.333515267012977 18.236517040450067 18.13970857235202 18.05134081247971 17.97952997994396 17.930760303778104 17.90849077911619 17.912324931243564 17.937979836881365 17.978017443264694 18.023094311242136 18.063405865724103 18.09004467934176 18.096107364903286 18.07749650814457 18.033410784248648 17.966488580910756 17.882526364126633 17.789720130713352 17.697514808010208 17.615326945188666 17.551492455826168 17.51268096122786 17.503744254113744 17.527697635912748 17.58546410425858 17.67522111037184 17.791573189995756 17.925098707389644 18.062863344851152 18.19017927288305 18.293337640147325 18.36251854655165 18.393863626082457 18.3899210765332 18.358260256068135 18.30873716895386 18.250365087488184 18.18881902077154 18.12529541853133 18.056937723793595 17.978542816252713 17.884934136924134 17.773274678705786 17.64467778688836 17.504709423667045 17.36270372098768 17.230155782493345 17.11871234921064 17.038358300187266 16.996253720419457 16.996361823719912 17.03966021300509 17.124516971606106 17.246851000116852 17.399962738003577 17.574261125554937 17.75731770139727 17.934616585301388 18.091069178561828 18.212998788655245 18.290078227700437 18.316728218379247 18.292706329449167 18.22288426757797 18.116388453391004 17.985325345909885 17.843282978911926 17.703769273536142 17.57874538906178 17.477414216776907 17.405396428274816 17.36436896251851 17.35218356490235 17.363446969517536 17.390513223167403 17.424776407847464 17.4580511724721 17.4837394076829 17.497486313047343 17.497175108026227 17.48235552107699 17.453427323164224 17.41098175592711 17.35559502406649 17.288133183974676 17.210394562440694 17.125790557121995 17.0397751960421 16.959833041432013 16.89495958877545 16.854680300378757 16.8477468205265 16.880721047595834 16.95669771511768 17.07440921710321 17.22790318146295 17.406900905717393 17.59784786037487 17.78555376441683 17.955183830311658 18.094228558752086 18.194012881731126 18.250379520934334 18.263411615349877 18.23636621865836 18.174232064631152 18.08238993161806 17.96573528953845 17.642516454928106 17.515998811605872 17.38458946734314 17.250417547440318 17.117484440183727 16.992628657008932 16.885552535981578 16.807559738114566 16.76908415866167 16.776617209246073 16.830020695380075 16.921251130176838 17.035169034276073 17.152472446377942 17.254087118635276 17.32580250142125 17.36175938187855 17.365669186373932 17.349322511997787 17.328810701437526 17.319629197481454 17.33217606158628 17.368978594758346 17.424356498837998 17.486406443990862 17.54047414032553 17.572912637710594 17.574012753020035 17.539459417741234 17.470295753644802 17.371889584077838 17.252589903623427 17.122597105955602 16.993194111552853 16.876131107118674 16.78281592098446 16.723086150201297 16.703633558278018 16.726449235020425 16.787812962533597 16.878294231356044 16.983985894072358 17.08884075392645 17.177643835357706 17.23894024258033 17.26722041939276 17.263844403400597 17.236500166849222 17.197337719275136 17.16020957177859 17.13762930768874 17.138118765405366 17.164544332799892 17.213833942647202 17.278129503988755 17.347035064241318 17.410301040132335 17.460176012897232 17.492817531375234 17.508515081356265 17.51088071536903 17.505438228549448 17.498102823876376 17.493916809246976 17.496202863498944 17.506136371487955 17.522687048016152 17.54291654749763 17.56266078719586 17.577592297134895 17.58453022106992 17.58270545597087 17.574599353804636 17.56603063332191 17.56535952152098 17.58192790090765 17.624058849142187 17.697042622812248 17.8015450238462 17.9328197428749 18.08099610927261 18.23252157641482 18.372550141490176 18.48774133211649 18.568709183158745 18.611390942487056 18.616949448056385 18.5903712060976 18.538425814812726 18.467854925082655 18.38444955094286 18.29316403054419 18.198877523809838 18.107128051135152 18.024234253973056 17.9565995656171 17.909435741482305 17.88542332915516 17.883840296259528 17.900478227475016 17.928361038089573 17.95902377425719 17.983985746525146 17.99607841503593 17.9904175794382 17.964958658226585 17.920664674635045 17.861321846743582 17.79300347033248 17.72319398787971 17.65968722569276 17.60951353635632 17.57820486074573 17.569579025227625 17.585947598774347 17.628390520671203 17.696687190338597 17.788725463663994 17.89962023050818 18.021122266392506 18.1419532672833 18.24938045758956 18.331769893140113 18.381313381934167 18.39590267383868 18.379368668067404 18.339918246636863 18.287301113468203 18.229703579025177 18.171412278105123 18.11194921044172 18.04684108851417 17.969673344318867 17.874742045317223 17.759506795237066 17.626151093730495 17.481831764979447 17.337582018406568 17.2062275081237 17.099960193384874 17.028283115297736 16.99685078273441 17.007350112877745 17.05815565014476 17.145238703146955 17.26283410912766 17.403648963178604 17.558770159209004 17.717673063434006 17.868710618590036 18.000195600750153 18.10185146824022 18.166203313811657 18.189512204860623 18.172069503459436 18.117909077708926 18.03412920786337 17.930010103607433 17.81603325550756 17.70284547677428 17.600205936297133 17.51598991581472 17.455357574659573 17.420208486918128 17.409035440197787 17.41726340916607 17.438092785318574 17.463743667698633 17.486845614162934 17.501612132024842 17.504468511165506 17.493992182657284 17.470302966885086 17.434263412835797 17.38689352173642 17.329249070702197 17.262754918639537 17.189769687508264 17.114084226279147 17.04112210574333 16.97774097698671 16.93164978061175 16.910526376961844 16.92095614489511 16.967336657231073 17.050911748471155 17.16910194873466 17.315282682736772 17.479128090553264 17.647580249913275 17.806401630089077 17.94211369056281 18.043952765528342 18.10537273775344 18.124682974425568 18.1046496415738 18.05122065955668 17.971804515217986 17.873619120983054 17.7625201539754 17.474682238181252 17.381028081897536 17.28927064792311 17.198112651836976 17.10778231669723 17.021492240801393 16.945970722476112 16.890606847543673 16.8652004882383 16.87688018267348 16.927188755337575 17.01042410587495 17.113998548995426 17.220949787384022 17.31401323747225 17.380090648883936 17.4137267001443 17.418439467329403 17.405400964807615 17.389827502419795 17.386208412708616 17.40388394252043 17.444332137384173 17.500905058230604 17.560912102023764 17.609202285144725 17.63201307334994 17.61994170169336 17.569376598417236 17.482370136952312 17.365458299742684 17.228134864683774 17.081535229983103 16.937520603460875 16.80800365016945 16.704202599997725 16.635599399414172 16.608623487498324 16.6253403730575 16.682569762878824 16.77183504625871 16.880365531500807 16.99309297113679 17.09528921687645 17.175274748782044 17.226563123145567 17.24892164627033 17.248088840204243 17.23421261165687 17.219370183138906 17.214739044609917 17.228075127490566 17.262100449792232 17.31419481787234 17.377444033389683 17.442704021015015 17.501036803460654 17.54579296395288 17.573798313557383 17.58546557842429 17.584026912190975 17.57431113178022 17.561502608030786 17.550161947095088 17.543581033534828 17.543407946930472 17.54946986837226 17.559814192572112 17.571082466698208 17.579326450418243 17.58123295285693 17.57550376185357 17.563964833727596 17.551967678417277 17.54782118410393 17.561278631910955 17.60138135125278 17.674138521527574 17.7805823544385 17.915701246837298 18.068629340645288 18.224235954155333 18.36590087870666 18.47884963381159 18.553122877745515 18.58525785880054 18.578152775763936 18.53925153234166 18.47783342990804 18.402498498145036 18.319743722047267 18.23393261158271 18.148284773930683 18.066095695959277 17.991417872896307 17.928824747825207 17.882393104508438 17.854412310002065 17.844414301630252 17.848934710678293 17.862095133881624 17.876796111747755 17.88614099739092 17.88470840382551 17.86941829358796 17.839908519518364 17.798464775096058 17.749585395519993 17.699246204455996 17.653937380227244 17.61962094182074 17.600861235600217 17.600400185864114 17.619299774148725 17.65749290327058 17.71433252206336 17.788693432005676 17.87843453537473 17.97946119951777 18.084993630388066 18.185709231531405 18.27109832997916 18.3317849999991 18.362012370926003 18.36127774520398 18.334367083364683 18.28967053143485 18.23635695973895 18.181420578345968 18.127615927379306 18.072921304236786 18.01162082333196 17.936594051411678 17.84208760382424 17.726154984566094 17.592072436358674 17.448331328101723 17.30721111294103 17.18235263884503 17.08605023282781 17.027046256053495 17.009400793475397 17.032591273707588 17.092541902404925 17.182991557665872 17.29661235850379 17.425572603412515 17.56163056508887 17.696123857254577 17.82023309117078 17.92566694813598 18.005607525391138 18.055570779357765 18.073876016198504 18.061623733041838 18.02229882400573 17.961213500927 17.884954129313087 17.80087211184664 17.716561499920687 17.639249770746048 17.575083298272393 17.528373226746144 17.50094382943538 17.491770691195928 17.497086767605627 17.511045245131008 17.52685839390295 17.538135398549723 17.540021319579726 17.529785482494134 17.506729525691213 17.471581923148435 17.425756804684433 17.370862460723533 17.308653524262876 17.241354003749514 17.17209233647827 17.105169588797438 17.045998730035535 17.000706082042523 16.97548732236208 16.97583682710576 17.00575290621854 17.067003601576427 17.158535120300122 17.27611287856332 17.41229464801506 17.55683747491021 17.697615163913948 17.822040857829894 17.91883663363102 17.979809650555815 18.001178164140747 17.984038480484397 17.933797937713784 17.858729466755364 17.768074119612663 17.670208706234416 17.571300041352252 17.34447739881536 17.285116935399092 17.232430838598265 17.18192430791086 17.130398292454853 17.077806838444538 17.028213317059112 16.989297762320387 16.970326226804264 16.979097569154725 17.018863800911184 17.086348493085588 17.17169229525159 17.26053812143053 17.337744682781977 17.391626775245115 17.41736590397828 17.418425707211007 17.405415661872436 17.392689377271225 17.393743208778 17.416898517159485 17.462639009654552 17.523376885299516 17.585576285369008 17.633398293470606 17.6526279128321 17.633719673991802 17.573275350091393 17.47391071001904 17.342998664975905 17.190995179195266 17.029930027324806 16.872309574829593 16.73034260665269 16.615229617047746 16.536297942229993 16.49995119835531 16.508612644676976 16.559978343693583 16.646908825410726 16.758175539609052 16.88007048035534 16.998639000919255 17.102083030308712 17.18278275534814 17.238445237826994 17.272095343226002 17.290911102785905 17.304187484358817 17.320922567849756 17.347617955587705 17.386844639008434 17.436932470826108 17.492819909606464 17.547740738349148 17.59516622266482 17.63038466291133 17.65130549845379 17.65841852406148 17.65415047673427 17.642003204546693 17.625795521035794 17.60913885653772 17.59508420159596 17.585796252449025 17.582179004556178 17.58354376948831 17.587559456744536 17.590737192225802 17.589528803591893 17.58182539265624 17.568378787046072 17.553585642856305 17.5452286156294 17.553093045442967 17.586729026213053 17.65288382292747 17.75324039760123 17.88307619921878 18.0313159598699 18.182178021627873 18.318199673521633 18.42394855363 18.489368160888752 18.511684694870887 18.495228752540584 18.44928326442105 18.38483328828264 18.311490225469164 18.23568680727622 18.160582098099823 18.087321000047226 18.016756450201132 17.950693022544073 17.89210298570287 17.84434332181698 17.80986482165908 17.789067249290323 17.779809506136857 17.777756965969346 17.77740914485683 17.773432927763242 17.76188653500685 17.741032650346643 17.711621646126034 17.67668028106662 17.640912962533 17.6098307628708 17.588734877619004 17.58173983271137 17.591091752057036 17.617021242526338 17.658198983552115 17.712578038209653 17.778168567090155 17.853274600878134 17.935993934572856 18.023227524485975 18.1098191813084 18.188511120902245 18.25107024237842 18.290349848813374 18.30250345442104 18.288367870613836 18.25331515749296 18.20551099282276 18.15319302894938 18.10197262603026 18.053115251489096 18.003347018876738 17.946188970055406 17.874355163061924 17.78248398348617 17.669422295599407 17.53942034241446 17.401885105590107 17.269731025858604 17.156771927661172 17.07489256256853 17.031804204263388 17.02997668176629 17.066911990262813 17.136449752322076 17.23047740668868 17.340398574690955 17.45798430590827 17.575631891015107 17.68635659785717 17.783886468208827 17.863030123070672 17.920205255055798 17.953848140376277 17.964469047513973 17.954318126481045 17.926829362503344 17.88608582643129 17.836471381375127 17.782516588909097 17.72881516138341 17.679847491579743 17.639602777166917 17.61100484766296 17.595273629398726 17.591449485545613 17.59632511880484 17.60493406250512 17.61154502767689 17.610884630704103 17.599179306724768 17.574665262159957 17.537456290780163 17.48895995894623 17.43122189493928 17.366547595021075 17.297530402066982 17.227349080889322 17.160049353136074 17.100559117073026 17.054350458239504 17.026831298263417 17.022632855318097 17.04494427535064 17.09498290761868 17.17163365303029 17.271268095126686 17.387759771821173 17.51273375140791 17.636112418751313 17.74701976541957 17.835048746265787 17.89176481371651 17.91215240792656 17.895603304865887 17.846090366168898 17.77138736970174 17.681498553726883 17.586704159590653 17.495703224985128 17.41424465036508 17.264798986059837 17.237612056751104 17.219268385460047 17.20262569933288 17.181756440952366 17.154058754855182 17.1215079210133 17.09044218078583 17.06973267159766 17.06780594932423 17.089492249539745 17.133827428810942 17.19366652183694 17.25737420612793 17.31215322105033 17.347988718309555 17.36091608286362 17.3544694206666 17.338722591236795 17.327134266987784 17.332177081791784 17.361173655837923 17.413695249576737 17.48132158744313 17.549735040278055 17.60235554122494 17.62430142215665 17.605513671880008 17.542333254694356 17.437445616622526 17.29863327826528 17.13701611498758 16.965375168354047 16.796865260859246 16.644109220218898 16.518481792902456 16.429383302725274 16.383424712136915 16.38360774724024 16.42870905733304 16.513122512605964 16.62736274401705 16.7592905554739 16.89591824564361 17.025453772902686 17.13912627185046 17.232357516048125 17.30500355956085 17.360631434013598 17.405040032560485 17.444420119195893 17.48363788179805 17.525093955442003 17.568441872904867 17.611171971379147 17.649768492398756 17.68096071121766 17.702612612156713 17.714021664129284 17.715701547967562 17.708939782357497 17.69544316255379 17.67722477415617 17.656658397829958 17.63646855524238 17.619429139592135 17.607714473341808 17.602099774181536 17.601406307892805 17.60260169146538 17.60174956434293 17.595630134947104 17.58349899474576 17.568299459900043 17.55677788903319 17.55830979231116 17.58266615633512 17.637277736505425 17.72471429535816 17.841087594183456 17.97593123455627 18.113803953483373 18.237407701971478 18.331487925157695 18.386383321490015 18.400051220005977 18.37783907904707 18.330091198314356 18.26852833910851 18.20280507646233 18.138492168079225 18.077026724036724 18.017283125854895 17.957781063184342 17.898436154307273 17.84115205958227 17.789187942234843 17.745782170599316 17.712751083571156 17.689675690601444 17.673957979040644 17.661652053452386 17.64870751169815 17.632180535019597 17.611060642985258 17.586547531722804 17.561790763943517 17.541209810394694 17.529548031491373 17.53083573602581 17.54748254523409 17.579758128515756 17.625871378792223 17.682667656298385 17.746681978078943 17.815065368186662 17.885905463640686 17.957745654157836 18.02855420110105 18.094766019403977 18.15108235813553 18.19138541026624 18.210543860304092 18.206353658291558 18.180679131741474 18.139156225429705 18.08945210779389 18.038717840589126 17.991205913600513 17.946922939056886 17.901754479891203 17.848970226917494 17.78160542987807 17.69501311330324 17.588880864456197 17.46815903858868 17.342616969644332 17.225094931584756 17.128885699012333 17.06495326057179 17.039764447926004 17.054314862459197 17.104521503767746 17.182685176637406 17.279396869403076 17.38522096113918 17.491739786041034 17.591937708916085 17.68021364419452 17.752377569990582 17.805811176854586 17.839710159433793 17.855168540049448 17.854911333386394 17.842678442761233 17.822462844413206 17.797879982786633 17.771861234587398 17.74668913951161 17.724229328673353 17.7061385356981 17.693860198482785 17.688336868550195 17.68952673379228 17.695949831176446 17.70454028412309 17.710995724631076 17.7106061084976 17.699303851985555 17.674542001690448 17.63567322534136 17.583750385761714 17.520960458475738 17.450062095843215 17.374128359528925 17.296652350247953 17.22181777908981 17.154628369684104 17.100678366116973 17.065549900869847 17.054003703200483 17.06919459037706 17.112092828995706 17.181191995531417 17.272499528811288 17.37976528664396 17.494900563283814 17.608560710482752 17.710894150686638 17.79247580697353 17.84541141485619 17.864504636873292 17.84825338181834 17.799365297284087 17.72453434103088 17.633412975766515 17.536967580130035 17.445591797125797 17.36739031653511 17.30695188364749 17.23973566141985 17.239895468242825 17.2482165985342 17.25567746807504 17.25455790745402 17.240629687367218 17.214539713625825 17.18176199106197 17.150934450346806 17.1310070549875 17.12813082243256 17.14337944151829 17.172144855761214 17.205489458465188 17.23307546662979 17.246743110976265 17.243544386283034 17.227154254132238 17.207070442261212 17.19574471827043 17.20451891695808 17.239689599387038 17.30000403355591 17.37639185547512 17.45395768737799 17.515512392607505 17.54548993377754 17.533117232246944 17.474113345628503 17.370779533676977 17.23085088537709 17.065734868074298 16.888724795064395 16.713541129658946 16.55327614176689 16.419626917096892 16.322248469678343 16.268118035228603 16.260914335433867 16.30052596568165 16.38287098197276 16.50020648493875 16.642017700867182 16.79641600043151 16.9517999567827 17.098420192375333 17.22949350600854 17.341634800193496 17.43456443384086 17.510236217624428 17.571668976605466 17.62182712475922 17.662864766799355 17.695911947025913 17.7213646394621 17.73942526740539 17.75054439260114 17.755508823270088 17.755166193480918 17.750026143929365 17.74007530420376 17.725022456936692 17.704921662846825 17.680860992691795 17.655300060666267 17.63175362556216 17.613808317722594 17.603801147325225 17.601725199273528 17.60493089714554 17.60892217520953 17.609096522722822 17.602842270270518 17.59119375560729 17.579359905797887 17.57582745133054 17.590220843289128 17.630492921628363 17.700222546930235 17.796799412105802 17.911108286162065 18.028995205831134 18.134318348901754 18.212839280009085 18.25578912544211 18.26188981001364 18.237059567970622 18.191879827083937 18.137796110348617 18.08353531620336 18.03307601461288 17.985770959275094 17.938263212818338 17.887128087357738 17.8310198420619 17.771503756343606 17.712443473198853 17.658435532551852 17.613084538306012 17.577835667837636 17.551739589956092 17.532109437106076 17.51571338877515 17.500024901822822 17.484125251823382 17.469042518259847 17.457511593903813 17.453276241183143 17.460118055807314 17.48082919265486 17.516377847129778 17.565524447426583 17.625067771748526 17.69069753380276 17.758159312506702 17.824241645874018 17.887119345709262 17.945873819952737 17.999445855512562 18.045630551316176 18.080778179377454 18.100543399235207 18.10146520540896 18.082656457234453 18.046727674504098 17.99937612579004 17.94768785808384 17.89779986016084 17.852846649286477 17.81196433598469 17.770674636489048 17.722469476753556 17.66106737166989 17.582684810581128 17.4877185377445 17.38139951648343 17.27321658335467 17.17519864484896 17.099449898244274 17.055571117728604 17.04867018465927 17.07850312302427 17.139920702023286 17.224356789164606 17.321770648058536 17.422395469793386 17.517869285272866 17.60169765089575 17.669304813979636 17.71800855354533 17.747096116274896 17.75792883375229 17.753848709150912 17.73970220175585 17.720991393296654 17.70287186457732 17.689309714258915 17.682644083730562 17.683626789866747 17.691821524978078 17.706123209011572 17.725144555165542 17.747311572031766 17.77067677595781 17.792630105139715 17.80977678260784 17.81819435688368 17.814085641342327 17.794608788772535 17.758534117012147 17.70644590207404 17.640448981319718 17.56360829025378 17.479471625370362 17.39192236390816 17.305351182353036 17.224897125824707 17.15644112913357 17.10616835496786 17.079747712878905 17.081360619641977 17.11285820085313 17.173249601146875 17.258599980377117 17.362315106484314 17.47573522356379 17.58894435905932 17.69170711245628 17.774463647249423 17.829331245133364 17.85105401402274 17.83779646149232 17.791612466115538 17.71839627043137 17.62719156828368 17.528898626688044 17.434606101223583 17.353884646138997 17.29336215771411 17.25579366806761 17.264058860686514 17.285301272823187 17.311365586781896 17.332185086136796 17.33924805453284 17.32769372796651 17.297655855955803 17.254257027805384 17.20606899450139 17.162431775586988 17.130498139196458 17.113018086529678 17.10764048023897 17.107993820619125 17.106210746569385 17.096073423641048 17.07572024090859 17.04894414080016 17.024528270951055 17.01370482713614 17.026485940815167 17.06805235193542 17.136406511767085 17.222072872792594 17.30992214741934 17.38249322274216 17.423759342670497 17.422271182677694 17.372960451035663 17.277414138828846 17.142903821882257 16.98071506047222 16.804329705810797 16.627840811123164 16.4647489441962 16.327105420697844 16.22488108293698 16.165443972079863 16.15309426166915 16.18869405888885 16.269506536689896 16.389385372849414 16.539404499032187 16.708896581254656 16.886727338950408 17.0625433395743 17.22773996581198 17.375994915338996 17.503347898055825 17.60792378655487 17.689467373768103 17.748878684938717 17.787902612745462 17.809026413112587 17.815492420361565 17.811213754196057 17.800384572063113 17.786745581086187 17.772726193374172 17.758872504394958 17.74393855487306 17.725747800991744 17.702553340107876 17.674340289889187 17.643473897071964 17.614330018791733 17.591954931141053 17.58022317574098 17.580223375107128 17.589581562463167 17.6031089074095 17.614643477580067 17.619454832658025 17.616318838943904 17.60846639644612 17.603012222366992 17.608994109333317 17.63459474739664 17.684355255398813 17.757203889736576 17.84594670819555 17.938523578435394 18.02084576223693 18.08048444470013 18.11005988506028 18.109123627395388 18.083769693810652 18.044056952769242 18.000226801824006 17.959219176007544 17.922843327693148 17.88820137141211 17.84996650049433 17.80337078077782 17.74658968176107 17.681634111643934 17.613602324076723 17.54882647987632 17.492792722253135 17.448645994065714 17.416725915957446 17.395123115827705 17.380887373563258 17.3713683206506 17.36523159582058 17.362890789500245 17.36631810257277 17.378361341796822 17.40178136673937 17.438261398115333 17.487655094287312 17.54771897203232 17.614470794881253 17.683110297216817 17.749191157119448 17.809571093795164 17.86271285042775 17.90819004834649 17.945657779058784 17.973868997802434 17.990355426228632 17.992080643333495 17.976845599007234 17.944763273476568 17.898994735345145 17.845250530266068 17.790153342295834 17.739108546078533 17.69454983404332 17.655234088472533 17.616801371203298 17.57334761891482 17.51947337411671 17.452216829074203 17.372383463154346 17.284957145828983 17.198474315072545 17.123461205173413 17.070265548207516 17.0468076685192 17.056847229104655 17.09924326713019 17.168381560714497 17.255556815574586 17.350793728762717 17.444516482374002 17.528664633032623 17.597192192476914 17.646176846930665 17.6738472821424 17.680690930378265 17.669562551128443 17.645556405785033 17.61543713748489 17.58661755130419 17.565898810745047 17.558319363546186 17.566433235002467 17.590182111358384 17.62731678243301 17.674147391683764 17.726322552031522 17.77938331920985 17.828991916924213 17.87092875630979 17.901083915587265 17.915658202119356 17.911629461661953 17.88732610505658 17.84282572256737 17.779958218667574 17.701912086588948 17.612675686498775 17.51663011870269 17.418482286697813 17.323469793194448 17.237556661376257 17.16730949024963 17.119307470739944 17.099182021767568 17.110556017813515 17.154181565619762 17.227484506332686 17.3245946744965 17.43683908957445 17.55361619963546 17.66353608503088 17.75568981179906 17.820902121558735 17.85282847199101 17.84877154092226 17.8101017976908 17.74217745053649 17.653699205764095 17.555529539594485 17.45913999972454 17.374962478523187 17.310943549356747 17.27151879158688 17.25709638654823 17.32449465764579 17.36043401