# vtk DataFile Version 2.0
Really cool data
ASCII
DATASET STRUCTURED_POINTS
DIMENSIONS 200 200 1
ORIGIN 0 0 0
SPACING 1 1 1
POINT_DATA 40000
SCALARS temperature double 1
LOOKUP_TABLE default
19.40965304110636 17.79361575571074 16.222432721320153 15.935996904106547 16.173198745132996 15.882251936663266 15.169816649518449 14.11918166003915 14.047629660498803 15.408650596436955 16.08136733030432 16.139147565316875 15.934451208166191 17.379409975934205 19.177273376509458 18.82105480729311 17.193491572171922 15.674554410355585 15.530486077295105 16.516921479615494 16.933551447542687 15.96962020296592 15.177190032810072 15.375698073790517 15.749835201356701 16.773361380741854 17.89045672143313 17.41263885236654 15.591384357372949 14.869569751896309 16.273643004625704 18.33780658379296 18.73564878402336 17.159779691634565 15.390502999592321 14.819993821757327 14.543147068941675 14.491526277765521 14.48781325551931 14.835869661888403 16.394978614632503 18.06743424548422 19.056874086182287 19.401070390198136 19.908320113204685 19.92477051787572 18.792155796097685 17.423089517490123 16.376275323343336 15.43057729691183 14.51772204347816 13.95924909935227 13.601622640460182 14.240250505283893 15.654211534523858 16.3677703808729 16.180139760073207 16.075912032520737 16.138983271591094 15.900075928813784 16.041152097228498 16.452822248471286 16.734073195438757 16.046469617632678 15.3384625905319 15.348826842806705 15.877680786541362 17.431567803889447 17.774837536755346 17.39664769292098 16.51871561111429 16.26946188670089 16.162019337428795 16.803027338096594 18.32983727600186 18.80512364397729 18.395435964998377 17.583348866807594 17.17629729996286 17.15136765577882 17.515477692199735 19.20534231792776 20.15008683378337 20.11799153529773 20.224134081126945 20.807205035190982 20.97894222289776 20.79572290060944 20.691694518491182 21.089116121862112 20.640095876954952 20.22444574738207 19.824485861716095 19.044977300655773 17.560254146231905 15.666365466292525 15.349276463525202 16.15907992911929 16.24532057210171 16.889791265762735 17.823533661333624 18.572940471000244 19.839487091698953 20.019234674695543 19.204830615068737 18.65015117307507 18.893071847473653 19.883025166628293 20.056842627519394 18.491272302158198 16.40970853158333 15.045706075783027 15.184455748978708 15.935516644317945 15.72900839944132 15.533035472671592 15.982989501432023 16.361469440735853 16.74410756386635 17.249073320755308 18.221026232041964 18.736275918015174 18.90760761800708 19.734832921420185 19.83193852774896 18.60455564735367 17.816328304499258 17.14251263420751 17.20272570824126 17.270612354969792 16.39016565846413 16.616554928413485 17.790078151363492 19.029818276827147 19.239976597124226 18.484914550809272 17.572840720531012 17.12798743886095 15.94803402268967 15.459407752386962 16.175565323009653 16.36082597563055 16.67920151347859 16.5710093267268 16.398676016601637 16.022816410316636 16.073743947781065 15.783837373766678 16.226371784442957 17.8431367195292 19.943954932842374 20.886646329836047 20.359433488732783 19.74461501574149 18.891825359533012 18.2923090132085 17.996775907747928 16.95280765812921 15.636559298294117 14.814218097039129 14.90442190588209 16.091471693281406 16.89649849204724 17.08030163075849 17.091093135761977 17.70476746513574 18.181758500301427 18.72610122586801 19.047251844603863 18.113354561168734 16.708888530378164 15.550532883735535 15.248550790824156 16.30978208049935 17.68066453978477 18.68838350339409 19.179078092232878 18.13873619581657 17.114730035963138 17.142027158102824 17.711974492168054 17.412213086023332 16.339539759845977 15.511227600556726 14.780045343974903 14.343983989585485 14.156062029119177 14.477648097336951 15.173203312918849 16.104054571341564 17.49491303402123 18.689002091875853 19.187312889522598 20.019158460341693 20.497204161350968 20.16089347428203 20.600985755851056 20.537962991669136 20.011286259082375 19.888259730405174 19.297909831724198 17.639619030458945 16.312177262884003 15.454475162615957 15.58438470714882 15.339831675326142 14.052084737296353 13.250284686376911 13.908758871382096 15.445973434099288 15.731416026027961 15.273348928398683 15.314270137673335 17.262481151648135 19.588615018196222 19.31667707221011 17.68540557085224 16.50173385135716 16.857177893862147 18.251537840503257 18.247081776765256 16.924579015340896 16.3792145055499 16.891253458519255 17.263576875730934 18.415873273825465 19.462505134400445 18.540079482412295 16.129301434404322 15.288246840571375 16.719487948594146 18.474147183702296 18.611910786740296 16.952311521787077 15.009486918631163 14.528186097092972 14.683153552221 15.257298670482813 15.583756970798744 15.965163281623607 17.245806392659937 18.70254017641774 19.732275427946256 19.887437343949983 19.776488835892465 19.533683461873768 18.47423821259397 16.91511026474278 15.562889629870007 14.508877513355054 13.692546120283124 13.253177281198504 13.45002832127402 14.637917086256113 15.929316521245212 16.49414098134078 17.067308051792295 17.84307626486055 18.077842345727376 16.98271598277823 16.205321632732772 16.36870845589516 16.55554179105523 16.05644183086245 15.656338637115823 16.024908474264336 16.589686444425933 17.130740467824307 16.792433271374264 16.692469188928147 16.653847307287506 16.84214013494266 16.12323107463902 16.411491688279142 18.120358462391767 18.583370757679205 18.168543099590817 17.84059002588546 17.641535412456157 16.800410519381707 16.659118535268377 18.555833534833145 20.20776698306719 21.062472024307596 21.4564294974239 21.332959457755575 20.43178482710136 19.548029112298465 19.259812186225812 19.91883135746244 20.324244014634132 20.65913432119191 20.025656562764006 18.480724756150902 16.884608872433244 15.288422720538316 15.337308511502163 16.007174119932895 15.736698626584475 15.774218284008544 16.275604735268114 17.23085716559445 18.818836941585513 19.37354870576282 18.88450438899222 18.595635044496145 18.725367357979017 19.16776805934804 19.221060925136822 17.67900244092667 15.48136495461098 14.114466279006951 14.783760905406968 16.523317174910936 16.899067180840696 16.648249597077694 17.050305895738003 16.995449945757127 16.523395158626577 16.50111469086519 17.232897504727912 17.83457043916779 18.158709163789982 19.24687278795714 19.605118687724733 18.218299218896657 17.325282428752683 17.01564765420876 17.17511961928577 17.075538591013117 16.436175089632936 17.03052102226074 18.457159785102807 20.04597247813744 20.18615740783645 18.584094465624286 16.985460546562845 16.152770397124833 15.156654032129655 15.154886012137515 15.748173052515492 15.648838641506536 15.510508198352188 15.376848724425335 15.573377200580293 15.524118155981785 16.17992380641406 16.283580655664522 15.967267892088985 16.921354263139353 18.833891780606933 19.795246888930897 19.348913171521048 18.63331631047302 17.436398417187345 17.215545703700656 17.48812918523983 16.602615784661623 15.304998391120883 14.663958987344376 14.871662520044264 16.12414436577094 16.642276873629832 16.48704526988324 16.3852618494639 16.804404098744406 17.112116329640674 17.861457184974757 18.896828948201293 18.640035641373018 17.784830458242077 16.201395917248075 14.618237431366708 15.003040513993732 16.20196575658984 17.089660335816497 17.836658365584416 17.509635416043675 17.07546833037312 16.913437575956543 17.404011440796722 16.9687117545634 15.589776418300827 15.252250095175171 15.225321284749034 14.947295684696572 14.580200573823959 14.923622698419699 16.107720660822398 16.719327904731415 17.14625087866932 17.68012810997747 18.294720050476425 19.319869892268112 19.810479080084452 19.236523344480055 19.38660958845733 19.442227118845114 19.411769777310276 19.768710488143327 18.846578861194015 17.71235162688351 16.6640396522898 15.723827810072054 16.270246944809024 16.33334407025525 14.647041596858447 13.611442807884336 13.886201589159274 15.054415014620433 15.514056260887351 15.229928554620297 15.65018876811875 17.642226934181828 19.8426447818116 19.60710745575901 18.476087347758217 17.657707686376032 17.657514074188217 18.675305323385835 18.257579926480105 17.247346783372514 17.363691201534653 18.397980717930174 18.979932308948335 19.83546374968886 20.332291080636576 19.10402533833428 16.956684456308455 16.54767710491787 17.84427603622849 18.874245956352542 18.534213314867557 17.298448804063824 16.128182496750295 16.078280469216757 16.138814869579633 16.681599488556557 17.209499998983926 17.486899504530513 18.17353767753301 19.072865538401956 19.64629727117328 19.77993812691105 19.752494418974415 19.287241904104846 18.033807581546913 16.247552800344724 14.902108777193643 14.263387655467126 13.800686586475912 13.579648201611466 14.360196934996017 16.04572017592816 17.132070197567568 17.69113018638039 18.886351214757436 20.055893226219936 20.314374266086336 18.902388818027216 17.232180654698066 16.499958792478303 16.453669501835634 16.43574870816527 16.540443293746005 17.110775008870135 17.464313304871848 17.21907203517443 17.039832050526883 17.76160392556517 18.353110633935316 18.32247580329033 16.769762453950904 16.02845996856615 16.75476566758775 16.950610733551724 17.105209923280807 17.70945431389795 17.936993715320757 17.104181033720604 16.903581456095512 18.526236559334798 20.21254610573842 21.537146612616645 22.03224235288835 21.089455065262396 19.136292680091756 17.68639528314647 17.178611139254894 18.129814431215536 19.520545093729826 20.398176026858557 19.59578067503157 17.650903487198228 16.055771711001096 15.098857047133082 15.959472271642788 17.146678586842174 17.137494133534233 16.70385442254353 16.72466600440346 17.56041954942974 18.969193733376624 19.019100764602072 17.88597716522447 17.58116118446237 17.78970007943009 17.750349240262274 17.822891953489844 17.373480575571516 16.312955477427117 15.354540863069278 15.794668315691093 17.389346236788967 18.017697390686152 17.839151431778827 18.189544430147617 17.98497730123255 17.212937064984718 17.047413902948083 17.906451570505283 18.893314470231964 19.45770264174309 20.533708471530073 20.878636594371173 19.29482668307688 17.702210548478252 17.13520358239547 17.37323105749635 17.48323993485808 17.287716973950282 18.044500355789527 19.39202105548997 20.94128689822958 20.947391284713525 19.144432807096415 17.330046174847684 16.244126534513885 15.401819670162842 15.298468558890207 15.713813825637837 15.405337736426103 15.12640078083605 15.418579261173678 16.056619866118876 15.837694108467263 16.410555015493713 16.987841665754804 16.166947878455616 16.30307723357457 17.92640311326956 18.625968146394904 17.84249383364551 17.527663163858936 17.436765421262788 18.491976992934774 19.54255805471878 18.84489595960179 17.28135802886452 16.189114076402177 15.927414690696734 16.109617947376503 15.645748218219229 15.209413170920417 15.507052356715707 16.44229219348727 16.83530959532976 17.135074193064625 17.91973872082245 18.315007084197873 18.405535693538486 17.044883416813356 14.96876663747527 14.89565924368991 15.85234761264724 16.136086489656684 16.310470411899395 16.46342031234089 16.882964425944802 16.618819106822222 16.64199653025491 16.288744642304035 14.983183131902134 14.995599838621159 15.824062568719377 16.43198171072048 16.318353917373063 16.433843363824508 17.4413892708729 17.60104664430595 17.323787414802634 17.720019000138542 18.68322148423201 19.75874807340197 19.729939183092114 18.49808474606732 18.064586204647004 18.271983157522346 18.54110880635012 19.047194144948055 17.165040746520543 17.329349541542705 16.87844373023439 16.165911067605087 17.23127084516012 17.90786627612698 16.664094666841383 15.458153629247548 14.688091992840604 14.96026585430198 15.373111773063501 15.52174127894467 16.026896917828868 17.569474093687003 19.83786585475683 20.31628457118207 19.7484069525483 18.584968672835927 17.620630854881743 17.833058512961067 17.336473643576785 17.41183928841488 18.297705944950476 19.16196822828094 19.40583945629937 19.86277940498777 20.019814920497268 18.747475695534348 17.236637201923056 17.131663491792057 17.953150537834414 18.47354271859176 18.29598021627265 17.75813470630567 17.212384551758493 17.07891109629182 16.760527394983356 16.913389889633457 17.33080433412975 17.43729242528809 17.963588724665815 18.260401902720666 18.350087476803154 18.780458815380722 19.458965746585903 19.006524855129108 17.688814293306372 16.09181068932787 15.524864290876069 15.694072994033192 15.355780201268507 14.918276973187002 15.85402007874824 17.644496702523778 18.62214513090294 18.988695706103687 20.212031673201494 21.102839075351028 21.3919653180679 20.59166906038565 18.85244760142319 17.342869214354156 16.951267625598085 17.027264053885737 17.041410318829218 17.33967274070945 17.57500567469945 16.88185037743444 16.764039582397825 18.157981205426747 19.493078448353657 19.603204240710035 17.858219767939644 16.135050620826988 15.119637997455856 14.76068107095283 15.55174411192302 16.83700101149601 17.378424795629016 17.12108168490118 17.679317582731827 19.485392420458187 20.83494216975741 21.809313151643558 22.12400586255335 20.76481420373616 18.56828045308363 17.301597847114575 16.68168743528144 17.54219090677971 18.742237091880565 18.94123413432959 18.056317368043725 16.873751514864974 15.944544839860798 15.56239786763725 16.647811674466208 18.281599943017767 18.82204376719243 18.27920335171267 17.928921794711524 18.12283615331208 18.716248971302203 18.160228516005226 16.578205772719894 15.908688683780937 16.154959399266158 16.23009011352368 16.361651008590393 17.00180454861708 17.41099605698618 17.064316782889446 17.209411945774924 18.621305258513914 19.259028158822755 18.87222300878582 18.85779348219841 18.720230994851278 18.324762368590356 18.60489488573898 19.80066365389535 20.871538419877634 21.647050823481294 22.261158522883747 21.894316047536872 19.91014147506635 18.033183690559156 17.657960082928668 17.954370217515873 18.015063823411676 17.842717102952303 18.45589755741546 19.550044357779914 20.64632681977358 20.315606864822012 18.508796260442917 17.031238556645995 16.5131961125979 16.251206028273934 15.969057979080462 16.29264572148867 16.236019236338255 16.241708292303663 16.997632149389837 17.527091167183748 16.72941488260535 16.746433802378803 17.52953807668616 16.899848536569216 16.559501816059715 17.47679972225165 17.81634067414225 16.949713444723052 16.97653792270449 17.97497235611921 19.658130688000924 20.988436402313855 20.754051195846767 19.63981740007639 18.385070499769853 17.643447738928785 16.749576510257082 15.783695966413028 15.099303074698485 15.01831706105275 15.805568768265136 16.175169185073543 16.129108446127848 16.539481102145537 17.503079279085696 18.310500919173656 17.480471797972243 15.837819499810987 15.935320430784207 16.799848889934825 16.301124179230897 15.668620158337571 15.986340079430091 17.112247991007088 17.428853335814665 17.415298183928844 17.00048904042056 15.845630707288104 15.839300857954171 16.55601356053442 17.285744692884037 17.168724935576638 17.017080159312513 17.454013436110987 17.27602715294451 17.326709009289313 18.482615771511956 19.864877982218015 20.290886252546535 19.201317391935202 17.169207138701093 16.558275167381005 16.76694435716284 16.604981107258777 16.74429089375073 14.681765509380524 15.609458542577011 16.20372966722427 16.452209019079557 18.155496725012025 19.326352547298477 18.62403091840653 17.293716452490607 15.96257439920577 16.024491021326803 16.656154100435106 17.10818504778079 17.070093558896954 17.648143440597146 19.80972715390382 21.072722016465708 21.07978660354419 19.675088606007773 17.73347765717164 16.959503396474755 16.393919852795047 17.44849657596893 19.426396076157495 20.366052061455267 20.124884588133533 20.061897989267795 20.021396294801008 18.817646566097185 17.257772218660495 16.719852637416302 17.100498901379968 17.319623966908384 17.209401329145873 17.100485966473144 17.15257566668535 16.956159145382067 16.553396021593286 16.3147870792401 16.287219420461778 16.162934141343086 16.615040430319294 16.62108793334677 16.684577703524067 17.655602124733175 18.81830799395535 18.478374709367262 17.468294675328906 16.665673079118143 17.200036664716006 17.68614841481594 16.92865852255106 15.930427259370457 16.426134844319122 17.673517867950927 18.714356005287268 19.56552991843239 20.821904720310133 21.061635027456077 20.819443171276212 20.28537170637083 18.903005717154166 17.296784573249532 17.250497137480238 17.983841916149245 18.205702429766042 18.056854937420276 17.74479364798788 16.40520080544495 15.93141112708821 17.632365499291442 19.567919781784326 19.7856228399176 18.29441101340184 16.827440798142845 15.088133803630528 14.386512046471706 15.381857318930248 16.486867901956085 16.589423648063825 16.62342298948817 17.89004149827743 19.81286986368709 20.938801904266587 21.54158782369654 21.98562302014519 20.775853228920504 18.567208367685435 17.31551514092849 16.552593070383896 17.203837664732827 17.598945038840142 16.878976509281387 16.30674287336046 16.62369210540742 17.06671108217607 17.404723216158082 18.119285829656015 19.059679172738807 19.59316094120493 19.227232848598973 18.964168283965144 18.715862700967627 18.390907817919814 17.468960491799027 16.16756647600285 15.456737286848574 15.618943214613939 15.970694008372952 15.70626760806257 15.932905678696608 16.82956179734578 17.06049925116693 17.661975185197203 19.337940051680828 19.843164587965457 19.17344835454149 18.821092991842434 18.466304682666234 18.30488350237767 18.95084091827994 20.24175031659117 21.27902425391171 22.238273222441833 22.147182278387795 20.812578335056802 18.517165625087237 17.244515737579228 17.842271306505616 18.71964746279133 18.686721186027057 18.400482501378963 18.87007701725446 19.654492096883704 20.13549608923211 19.737371422805015 18.189117648520885 17.17775748668748 17.138946978573394 16.886662625140733 16.24086306166558 16.384552124602674 16.7736540591407 17.50755354973135 18.77608613780029 19.033828586924315 17.844112434344137 17.270044557365733 18.128256637712788 18.464803125720746 18.278203795592045 18.344169319090543 17.908467165103026 16.973369405267324 17.080964683026256 18.20617060359776 19.5214582915005 20.695509369086263 21.06386891340952 20.809073881953186 19.92971130480872 19.31321001952049 18.57601840218499 17.909385455236258 16.791497160903457 15.631932943955652 15.62953866351246 15.514622433023801 15.450262885695258 15.884358049093938 17.080846762276884 18.11657060042835 17.69349785041693 16.527096582995405 16.880691118541762 18.01852393383255 17.178322004953273 15.715501095814156 15.599170749847627 16.49946543030066 17.420561227114526 18.051313587004582 17.822354662332785 17.169019235538634 17.265812222236516 17.43089892434904 17.686712648090186 17.54068197917499 17.07627157508605 16.89296900052826 16.730267394148374 17.51033396450944 19.13327254768666 20.343981378898143 19.80863325183164 17.956813444751965 15.640213591326086 14.926586006898068 15.016991998660192 14.760231674835344 14.375541326566243 13.21246526069642 14.120047082001234 15.65909583535233 17.083626231081713 19.337045996807557 20.53438495923991 20.075297840971864 18.801372442249054 17.446200011587877 17.55676692294817 18.166496624438942 18.33949909366986 17.722827730194126 17.857747357882285 19.99921100596217 21.745379031686934 22.244538372586447 21.03455088502199 18.77840323957856 17.385052829914493 16.651886265420302 17.823901338609197 19.886429580543076 20.59038591474135 19.88307614350895 19.663401736809845 20.113642131573155 19.914943196671935 18.66470810944259 17.548138111463253 17.495095534735263 17.395285164760573 16.948922524595464 16.598120834463256 16.780415081937228 16.298979568477854 15.867480127696618 15.917456861588557 15.956179207579115 15.714785249264551 15.474125182763844 14.743470913008634 14.864969044111241 16.427585501389718 17.73473535747826 17.39346843349937 16.812155460172928 17.047825433650893 18.53124275793293 19.094849512108915 17.848023132672104 16.280452928098864 16.046767508221627 16.814523256585716 17.988000930241032 19.56474270320013 20.458626238877667 19.832431548827564 19.04876890624116 18.67840631297495 18.112353421758932 16.772697542938218 16.626570906452812 17.98031798777489 19.094801991628902 19.612227074851283 19.111612062870254 17.16561851220223 15.807958567816 16.740518861669564 18.565916075519365 18.821138180647846 17.852462634436257 17.472103310278534 16.20049794295609 15.406026313076019 16.082271334046546 16.54572674553499 16.119440363725914 15.708528867384656 16.633973666627174 18.39342807279875 19.80635463993631 20.820497783631357 21.498804059596736 20.533848781395772 18.498154493416703 16.963246747476965 15.931397412418336 16.29586424046793 16.669379336316304 16.519303628028812 16.86460462046289 18.082635006118096 19.099901141052513 19.43766782130693 19.379548170355157 18.969010255960463 19.283206375942616 19.512495082888243 19.6653748243037 19.278113372391772 18.514392615974252 17.498654195278142 16.91725981126822 16.775216629746467 17.19224069228045 17.81242578039132 16.854328466139222 15.717085728886966 16.105294465371998 16.47875891262344 17.712905978256416 19.484687854729938 19.37089945846045 18.446915852378186 18.322352435524735 18.3865128477432 18.5908260188125 18.89367997323236 19.493237966694608 20.355966851585166 21.437832005756384 20.699503682867164 18.69909020642951 16.31537141622716 15.798701061446444 17.383528864047214 19.083185325066093 19.14245317971532 18.696843579607222 19.021516807592295 19.384371051448568 19.11315724410331 18.96894663563729 18.457434346687347 18.089020593355578 17.76807310368605 16.82384441734857 15.964725073546822 16.23420432979974 16.906512475742716 17.968125257736727 19.267692386485272 19.441503411248814 18.46217541411785 17.776352706200257 18.534467018196047 19.542560721933974 19.749463282660294 19.123333338785862 17.7010349835961 16.63097778590842 16.95282754901377 17.50017420217053 18.00823185483317 18.83837545758553 19.51618892382131 20.04687986028242 20.015695401674932 20.068388472323285 20.147920154635152 19.841827482740594 18.427192346703126 16.904336924319733 16.748916258615118 16.591185784697323 16.556987272781157 17.019717412849182 17.975850759063075 18.620450511013416 18.056228887098523 17.177906710580917 17.615739069859465 18.755108454546058 18.117036414701648 16.450874166077945 15.60505687320089 15.432408297573732 16.269223992070717 17.73094396487434 18.124248465224518 17.97018943045422 17.944851953354558 17.68822813458982 18.051995034531412 18.817090954510103 18.75679438393317 18.03500572122523 17.333082672109 17.962614055749018 19.302425787979114 20.254903708242324 19.429952943565638 17.40099663311756 15.084323397826934 13.984216060992493 13.949647873838817 14.104677702950434 13.440117865224586 13.713065428326091 13.912384412220154 15.209341640781087 17.17690102332025 19.78692901141118 20.882390767374172 20.534391033062686 19.482417962550063 17.93597193260088 17.561418234249157 17.913134330104086 17.85344098162064 17.001103074894665 16.858758311777756 18.662911630037055 20.641227514698794 21.8754368022436 21.389799019665094 19.334916548597906 17.44230263961273 16.62582632494851 17.498149342702686 19.068159671329436 19.73098413198156 19.45417089681329 19.743086437214934 20.505469190241435 20.870228885390034 20.118878446777984 18.52850860511079 17.301748599517865 16.5301335397099 16.153868652412882 16.059288125566372 16.1995529192568 15.662519006989125 15.717219832211816 16.43908349541012 16.646137660109336 16.396470180604865 15.329395769511391 13.744379640905267 13.798563536054553 15.591105549048793 16.920845325115966 17.008438712314796 16.955044445368284 17.39347435089338 18.845086906524646 19.325928806537537 18.03417060542399 16.711889599512947 16.667469592470997 17.47719742561414 18.187740068359282 19.123535173739825 18.851808083623585 17.540966230500185 16.636862743136756 16.924852807402438 17.667480292568197 17.27809986270604 17.064176322323764 18.24877548795609 19.33233769369783 20.38085448358088 20.149155924352716 18.4110711287119 16.621589606642452 16.53766818371951 17.858094886413074 18.375254361931134 18.00911027058093 18.260435223896263 17.58895131393805 16.91616343253937 17.34003328844891 17.568962559132803 17.240425648273124 16.403267977514577 16.367078619460436 17.4118221740314 18.547638216533688 19.86965981416519 20.553829457504037 19.696850271878166 17.936364853427357 16.26356282668939 15.392825619439499 16.0759268203752 17.254500198202877 18.130042233817996 18.88476869946943 19.57021593746584 20.05698936951216 20.270071361413297 19.93994454502215 18.693775065388852 18.616057219112744 18.922429646126066 19.510837259578686 19.61963803328687 18.924231465508495 17.841147604933806 17.80513871241694 18.028737764814952 18.728222249218923 19.3193042231983 17.923998469348167 16.238111513365503 16.525498020140173 16.908858612452146 18.17700911524375 19.57460668317937 19.093127813252142 18.465236943935924 18.682996387618765 19.09207628142936 19.097663529371694 18.399049048477575 18.18571146366998 18.896729259319766 20.139364572309187 19.22678077778371 17.15146359559406 15.35405646064147 15.691452837612427 17.654104879296646 19.350209921469638 19.087781454688695 18.31207438766625 18.65574580799168 18.775398253460807 18.029937571072722 18.124282666746023 18.689073742781694 18.4359775109729 17.55229734830703 16.43958884075099 15.576798621417428 15.738136016153721 16.10378944318874 17.27174264739348 18.782792570047807 19.380346517569695 18.593721883498 17.83071320937704 18.360744873779527 19.334017242123565 19.769054302573554 19.336516700330293 18.0029169066842 16.926478629567033 17.153701475653207 17.05504265764966 16.83977721640197 16.985433508579824 17.550117491167892 18.466396568460095 19.34106391770043 19.923158587748986 20.12443641015806 19.993533806899812 18.913574455293904 17.837054965557613 18.07305080897781 18.617480155840692 18.65198927822067 18.64440198074982 18.80284293969437 18.930276260183785 18.509083830500625 18.058906198068836 18.52712081132917 19.41333143030052 19.391731962322908 18.174593584616165 16.84138309977894 15.612186987221977 15.879058422895156 17.179111305232194 17.289875597334895 17.20735542945918 17.41577080037926 17.66140138293154 18.678952538720633 19.97298886315126 20.051121796570072 18.96899213596218 18.09083102449211 18.50788806896057 19.50171648939617 19.928894311058606 19.040967920379078 17.45057153852012 15.597076032588383 14.287415161595037 14.298521369315184 14.930783350810442 14.289697058301313 15.425929526134219 14.892524533306082 15.4278584032375 17.062110804760273 19.163875820871805 19.954358947718063 19.832003913386444 19.25074642771157 17.673254372534302 16.66993982629423 17.068159566691286 17.563131623942997 17.000120911518696 16.348275297451025 16.931033998017547 18.230352841115256 19.69741162562912 19.878408934464808 18.445976075255523 16.418915940184267 15.521112192096362 15.841058466899744 17.02201651024576 18.22889440692397 18.827676336146062 19.274584324801975 19.74840026178749 20.057095283693418 19.948506011883765 18.73972162446511 16.954693366414674 15.967129901866178 16.073984729995146 16.23300049002108 15.706610390207855 14.969658980334264 15.588597054973 16.660297986816094 16.75703379704247 16.29853206610659 15.00843124574619 13.534702516453551 13.855373864408955 15.45732740023515 16.61056068032393 17.317518490638474 17.699743268609588 17.72984497374062 18.669332163782393 19.3665362936071 18.472509236155183 17.32993846450707 17.79961592857663 18.93815996169456 19.061839186633964 18.612994091928936 17.02049660191919 15.460096098811514 14.508164161554868 15.264786961632378 17.24116905272873 18.0861331285635 18.589442691349944 19.347028926923958 19.349325696301587 19.74929826166284 19.647401490050292 18.527844785517686 17.03820845999424 16.761192751017685 18.172514696629438 19.21795724929104 19.3192491100174 19.48701814233239 18.9099160049501 17.79158897952236 17.452952851055272 17.637883059492577 18.045790247433853 17.467937594737634 16.644852326726525 16.975346874322568 17.885705142401562 19.377600574531087 20.292689336539098 19.77423990312704 18.196196842282905 16.409541684105616 15.830647342277645 16.824216098972023 18.378740826917845 19.362007425308747 19.585285708305136 19.158994684248093 18.715833498942107 18.948698162650494 19.0987241725037 17.989564820002265 17.507302045947245 17.376423179424524 17.973399873443736 18.693066394652412 18.62972184189469 17.817645914375774 17.40133692120088 17.03630949289308 17.961956342709566 19.039952183773952 18.07805538529084 16.77817146718948 17.259082583239156 17.39217697811895 18.086860805997595 19.127143511908418 19.051356304844646 19.255433017959053 19.508373339304452 19.355540165713602 18.498417522766633 16.949156804171654 16.478921253398592 17.36244623334937 18.774367202804076 18.227559599212324 16.50876822442724 15.458872339414771 16.438821290714777 18.277380284269515 19.25791736426864 18.447874158077244 17.528727794932692 17.981363255903535 18.052931948730812 17.152866962143488 17.32533225063354 18.162184619975974 17.447493319294537 16.194861767211446 15.493721082729072 14.940733759212328 15.079604002290818 15.122125294045961 16.33649294743485 18.439252249070723 19.6209829379935 18.64389549429259 17.65528377272583 18.118183360950955 18.833488383512755 18.962086434066684 18.7052621436692 17.932934351913097 17.087982870685554 17.035093039322216 16.734810041613233 16.46542682818628 16.50689576555735 17.156674311122224 17.952437062677294 18.974588437996406 19.355572655292722 18.910701592207868 19.006922201502153 18.571008627723483 18.11703652071663 18.935460834166378 20.484213987838896 20.833529463324087 19.89564710915867 18.84109757448117 18.1663533475103 17.902558402694087 18.227096153677735 19.221784490007 19.914730226912823 20.067423959176836 19.347756016907805 18.19540452962145 16.711139880922918 16.39863681633581 16.98017512691181 16.77047745972413 16.8905954565237 17.33557570382959 18.029730179825822 18.984960415277786 19.704340835194476 19.265732175839528 18.14115564302496 17.71858411822217 18.264987935477965 18.7550967716136 18.558570169953146 17.963253487001346 17.66571253409745 17.061230671865562 15.882465188817456 15.792167531050614 16.595742