# vtk DataFile Version 2.0
Really cool data
ASCII
DATASET STRUCTURED_POINTS
DIMENSIONS 200 200 1
ORIGIN 0 0 0
SPACING 1 1 1
POINT_DATA 40000
SCALARS temperature double 1
LOOKUP_TABLE default
18.41454511123856 18.11145568085823 17.77205397898381 17.40872082885203 17.029221815762515 16.646229980032974 16.289728138178493 16.0080449772005 15.85244605680932 15.855341014964724 16.016712565006312 16.303667027148766 16.657502537924255 17.003516034009092 17.26575304935562 17.388437587251868 17.356355069438248 17.201003205310858 16.987057403101833 16.78741270273928 16.660715927302746 16.639101056771437 16.724958108147632 16.8931561089442 17.09820994856723 17.2876343235144 17.41967926361107 17.478106575189454 17.474480171639133 17.434632708561455 17.378046822233635 17.305712031970437 17.205220049038342 17.067357987288723 16.900573363987384 16.734260494281244 16.61112727485008 16.5736092682193 16.64900236210396 16.837496165819797 17.107843069462202 17.403874590751595 17.660121275714367 17.820078317687788 17.850370322895103 17.747219428447266 17.5344896356426 17.25480253020415 16.958086895050187 16.692845209082584 16.501328121325308 16.414615481319824 16.444550565815074 16.576266788183258 16.76910291482019 16.96919723169586 17.12823565099084 17.21850997397579 17.237786186982646 17.204042714322764 17.1446147725416 17.085485715582656 17.045346914548244 17.03574298214109 17.064073510547757 17.134123932207412 17.242095083719995 17.37212998365568 17.497660943850637 17.59060524141812 17.633621975917446 17.62775080556765 17.590855829043196 17.548346239002942 17.522380286979057 17.526239841588435 17.566158049838986 17.646686998990763 17.773072596103937 17.94751201596052 18.162418335688294 18.39720694925577 18.622703842060876 18.811335102681298 18.94701373707204 19.029074986382767 19.068189574816035 19.076270294905978 19.055884451788174 18.99608436658423 18.878546894026336 18.691217836834028 18.44131134476157 18.159676984892698 17.89344474907952 17.6902637148236 17.58239777678467 17.579047577210144 17.66901459015196 17.82829466566449 18.026276846077366 18.2299534444894 18.40930443580559 18.543571338118557 18.623087185177333 18.643503029603824 18.598025338396955 18.477685668550215 18.282153587171283 18.031131439760443 17.763264794955493 17.52044403584171 17.32948016393482 17.19594270859704 17.113857442748287 17.081336974528586 17.108808604130086 17.214488776136232 17.41160615242078 17.695442481533718 18.036128853201397 18.380273133698413 18.66281669156196 18.82761336592025 18.84943223551864 18.745389876428245 18.56724711299622 18.3780509029481 18.227241390802806 18.13730849472811 18.104260184627485 18.105250944165775 18.10720815078367 18.075696457819483 17.98486622870981 17.826074730617325 17.610833811857365 17.366485539736875 17.12696470774456 16.922369110889772 16.770756060443812 16.675423330620195 16.629599827080877 16.626700543335534 16.670192061776092 16.77609150325428 16.964754914378872 17.2452852222311 17.601441882005947 17.98841589985811 18.34426614476852 18.61076166681431 18.751624309857682 18.758011666324734 18.64135772235788 18.42308778409921 18.13018589195175 17.79678182598406 17.46466596371682 17.176916425112367 16.96648662502308 16.847568998592973 16.815878004609733 16.856411938443895 16.951393643840092 17.08265755197177 17.2294895763268 17.367625946887234 17.473730637100076 17.534243617242367 17.55257178521527 17.547931868173634 17.54414101808206 17.554458794192886 17.572716742248883 17.57685973325693 17.54168018936793 17.45136792609348 17.30459157101951 17.112091670818515 16.89207719490778 16.66790535654786 16.46764078568758 16.321986592738536 16.25909756568749 16.298815093052493 16.449542181437547 16.707849503787287 17.058401976570703 17.47297282312874 17.910560523745303 18.322269894329633 18.662423252479368 18.902092625530504 19.036936139159657 19.082904413430057 19.06170823106375 18.98627218120546 18.856396020123906 18.666062161801058 17.96932054042865 17.716842744750654 17.44975294707829 17.172790181300364 16.88471755226606 16.588815419435747 16.30668407980082 16.081074314554705 15.96199942367908 15.985245422404164 16.157439227862604 16.45310489685494 16.81928499707569 17.18397419591496 17.470906807696007 17.622086696503064 17.619610756204263 17.49293090802138 17.30576067146155 17.130799169894505 17.026250461252772 17.022295365894788 17.117272711242514 17.280803153363124 17.46319826859915 17.611217792730105 17.686950623593635 17.681661518863702 17.61531930639831 17.519881514426334 17.417041827127097 17.30707005371756 17.176588398207365 17.01724781210728 16.839896248198894 16.675393810387032 16.564416520552516 16.543580244833663 16.633244514619445 16.82941272543925 17.101484522850573 17.39732415997677 17.65497998632376 17.81769293887581 17.84793545050598 17.736791056959785 17.505735850690122 17.199995807370094 16.876824328349777 16.594345340274796 16.40333479557297 16.33934337520396 16.413213807325608 16.604090890268324 16.862139285586778 17.123199247411385 17.329260682468686 17.445138879106523 17.465122046687018 17.409093352092228 17.31151860949849 17.20839906098265 17.127480741964803 17.08490408559418 17.08716395848055 17.133946399850668 17.218385994033383 17.3254714667277 17.432375183553575 17.513636288008357 17.55033744984545 17.538654117518547 17.492269851894264 17.43649676262645 17.39777676886126 17.3957311373351 17.442326839121154 17.546053992451803 17.714458386370953 17.95013159591165 18.241916684982662 18.558968476372932 18.854960060305796 19.082851150763286 19.212842369641535 19.243421994437984 19.198904062206044 19.114089259603464 19.014318443167287 18.902890424758358 18.763873828490762 18.57833226963821 18.343196786735476 18.080863363450423 17.833931636620395 17.648544855729895 17.55634739939594 17.565069414478465 17.660606469114338 17.815190932514007 17.99490249168286 18.1653089768018 18.29787027350731 18.376532847403773 18.39911294526303 18.370373618871625 18.292557948067337 18.163693108148152 17.986752552480873 17.78045265039776 17.578920625232453 17.417475473393587 17.315411236354162 17.270196916410345 17.26752672673557 17.298122852439512 17.367745372604173 17.49386830871062 17.69239903381496 17.962560363943144 18.277393317779445 18.584851618174785 18.821338251897405 18.934548583075657 18.906080278740728 18.76107017070704 18.55763929204488 18.361696535834067 18.222082263044385 18.158113719297514 18.160240014149913 18.197121598460885 18.224728492682466 18.198163187993938 18.086194230745775 17.883263362584948 17.612138163854212 17.315455857231825 17.04075152169785 16.825646330395877 16.688304490053575 16.62604905822858 16.622498435859193 16.66012284340318 16.731981140966067 16.845863995185432 17.017561905073322 17.25641965786031 17.55176528028171 17.86918044810195 18.16013842601945 18.379988317872524 18.503021906946582 18.525312942146613 18.456105957672893 18.30774459485641 18.09333257588041 17.831878716635405 17.552647091169767 17.291570365418007 17.080933562590662 16.940204471842147 16.874353451655097 16.878511756967427 16.9425615829384 17.05136825202964 17.182647478087752 17.307873214030476 17.3993146774094 17.440942267339047 17.436578891491596 17.408382586086592 17.38410590434683 17.38013480741086 17.39189700475659 17.398202871367744 17.37505729015764 17.307973283216413 17.19554386966569 17.045920661049976 16.87276119476996 16.694536240830114 16.535191149247698 16.421993835471024 16.379966373448497 16.42653449639842 16.569501532632263 16.807312090895834 17.128321717785255 17.508013113397915 17.907190145105123 18.275988807651323 18.565840510657505 18.745296651503963 18.810425925186475 18.78193372028057 18.690070271645006 18.55781851199467 18.393765189012605 18.197369420113027 17.498017567710548 17.33076576246511 17.172865112939892 17.017193903070996 16.849164056362916 16.659236502765896 16.458912762520523 16.2856654129219 16.190330184556025 16.21521947495641 16.376997477415294 16.66069200885605 17.02166491052094 17.39238859575916 17.696595918586645 17.872348253878986 17.895854744074143 17.791735697241737 17.622340920405314 17.462506464295195 17.373404716314283 17.385500657738525 17.493126024219848 17.65921933561723 17.82832193134183 17.94529895459293 17.9748297277534 17.913673174169332 17.787857102044114 17.63433982040432 17.478470628464365 17.32342868177847 17.158488920248537 16.977384995083046 16.791389300379464 16.628880283638434 16.52470974685209 16.50767131651493 16.59154753571352 16.770652024952298 17.019092324856338 17.293674495430977 17.540893006326723 17.707801111755018 17.75509860182635 17.668715108567458 17.464823871256485 17.185423494449363 16.887212623627228 16.62983223557992 16.466426756414197 16.434338527698657 16.54445022772007 16.773792095095093 17.06876224840318 17.36075636715493 17.587613805529777 17.711221434617116 17.72513487677365 17.65140913947126 17.529351140016995 17.400813442558547 17.297685912917263 17.236243279049546 17.21913368175782 17.241300163738558 17.294590128863938 17.368220355096316 17.446543300921594 17.508670422700302 17.53380866439388 17.511148010733116 17.447656569212132 17.367195498102213 17.301084357183083 17.27722759963424 17.315099756074943 17.427421207238826 17.622680970855768 17.901936487406697 18.249567354575177 18.625691188580735 18.96997425094817 19.219594682782542 19.33359734446228 19.310154538432034 19.186038876653974 19.017189922805056 18.85062748148983 18.70406539881592 18.56508483161299 18.40882762670725 18.221360363515657 18.013654287673447 17.81876336438675 17.67581643358156 17.61181792765292 17.631832777521005 17.72058659132245 17.850354025804798 17.988648083851444 18.104297319539338 18.17398876317186 18.188407372896414 18.152826731411125 18.079490776392877 17.97757607177649 17.85062875714789 17.704351322684367 17.55608862376916 17.43425109530409 17.365290193357986 17.358398222907276 17.401346432098205 17.471622546237295 17.554131029726292 17.652053109226145 17.783846013249306 17.96911414954497 18.211532418910313 18.487491784436756 18.747038159553785 18.92929580095121 18.987515046129857 18.91173973297161 18.735576966704507 18.521759911388973 18.33500746485348 18.218424496686872 18.184004413733078 18.215397131614388 18.275300324336147 18.31430226320028 18.28345035263767 18.150583209043724 17.913818267456556 17.603984374111256 17.273982036250793 16.98063961951782 16.767201222326772 16.65248325766049 16.62956367536984 16.673888833441787 16.757431534931406 16.86253963230706 16.98826696495039 17.145298965450678 17.342494340367757 17.573933869899427 17.815351204030403 18.032679942271418 18.197123511343463 18.296122816241034 18.332528171048995 18.314181256904845 18.244322388267324 18.12155906193337 17.948341776595125 17.738861175896705 17.51854177940512 17.315794379641524 17.153406533144736 17.045514354324638 16.999136430753627 17.01493801671419 17.084588327388502 17.187827556032634 17.294449288243182 17.37314419226595 17.403961037753305 17.387505103351522 17.344052510470032 17.30104089962377 17.27607066918522 17.267374933023873 17.25831051572282 17.230633290525308 17.174980999925154 17.092079819062313 16.988036032233236 16.871156505936543 16.753275294272783 16.651903001611448 16.588347501341396 16.58197714302821 16.645343646118523 16.783408128804595 16.99493740449149 17.27171919668276 17.59421918086901 17.92749901350144 18.223698532896268 18.434328204380012 18.528137997387777 18.50392437229608 18.38885779305801 18.22267304078196 18.03866991714739 17.854076267733728 17.67344429495093 17.062719149364547 16.998661562213453 16.96894713973344 16.952423177563748 16.91828398170368 16.841632220523074 16.722538756174348 16.59340261125192 16.507319459468942 16.51507398061332 16.645147134027734 16.894527953432533 17.228372595703537 17.585313218570235 17.890424270519386 18.07787612928873 18.11648741061521 18.024054466966206 17.86075119579372 17.70473390595167 17.622596012373364 17.647295764926774 17.770142047278284 17.947230463718768 18.116561711847623 18.21984354141477 18.222174455798722 18.12256997726797 17.949736020411454 17.743876692972638 17.535088650453183 17.33277363770791 17.132133637237338 16.930006980731086 16.736325126541743 16.573763288100057 16.468689189733976 16.441340166716852 16.500319255365262 16.64118556490071 16.846455764597426 17.08575534799789 17.31766030219095 17.495988244053 17.58132165988871 17.55404014386605 17.421940151439834 17.217992902283832 16.99071404118091 16.793571868827772 16.676316141787055 16.675594827033176 16.80336983860815 17.03849034243705 17.329516991104075 17.610550517599442 17.82282336976093 17.93191321510631 17.934541847473827 17.854657337477082 17.731884200949047 17.606780955415935 17.508140989737683 17.44723999579091 17.420911137551318 17.420346998463025 17.438977412406842 17.473638565952314 17.518696437973208 17.559508645018177 17.57366323853786 17.54219852974967 17.463186753622782 17.356744423981638 17.25763704252349 17.201853094427186 17.216921273589733 17.320214154163086 17.52100983254391 17.818559974001705 18.19353527342045 18.599742281028583 18.967338914772306 19.222448130097238 19.315862500433088 19.245256380343147 19.056906179021148 18.823805220813064 18.61138441467953 18.450478675178026 18.332672929083607 18.22814883905875 18.111954390042722 17.98154547679582 17.85692925402948 17.766886782071264 17.73225759315915 17.756435481970897 17.825965122275143 17.916920735321117 18.00167542205828 18.054851931335403 18.059793366719642 18.01408233827273 17.92925553937476 17.822779658398925 17.708203344920232 17.592612216539496 17.483474324888835 17.39649897521931 17.354088605590384 17.373131818295125 17.452020941658297 17.568917138091695 17.694349495826234 17.80939934307504 17.91657234377395 18.03651668390926 18.193045853168723 18.394571874772026 18.621381201977993 18.82656510023666 18.953124015113204 18.960827272294082 18.84841237061478 18.656865933782626 18.4507066729262 18.289215257198908 18.205282480192775 18.200558970808657 18.251832036446174 18.319318181246476 18.35441366212499 18.310751528152 18.159524438228527 17.90259579028969 17.574954054258047 17.234068157934725 16.941280305980076 16.743246236657743 16.65971338770935 16.68100551294891 16.77579225901558 16.90638346126954 17.04503548060531 17.182885994649617 17.32636653693348 17.484060913645113 17.653926486900502 17.820225214494993 17.961871287986376 18.06528149403318 18.13135983381501 18.17085608589304 18.19213843475924 18.192052104905724 18.157616157692264 18.07664165725846 17.948110824116817 17.784648737823293 17.60728273696812 17.4386869104126 17.299749975989645 17.20836471490215 17.176313287085097 17.203437514173196 17.273501074697766 17.35688171064996 17.420835801695244 17.442907043883817 17.42039843562333 17.36970573149744 17.314565422235347 17.270421211780025 17.236417542529246 17.200700662124756 17.152859956359286 17.091798419854836 17.023752592803334 16.955622213315564 16.89194190821291 16.837797154740972 16.802625394783114 16.799311352082803 16.839051876156766 16.92736579751325 17.06465617807635 17.248800672597447 17.47449205985116 17.727527160650506 17.978548983410995 18.183981138800632 18.29839495445659 18.293772340471474 18.173785818450146 17.97260478047664 17.738369119310864 17.512803248110796 17.320172502635494 17.16949018315106 16.72920804386265 16.76334807983913 16.854562039491658 16.96896352211551 17.059945069465858 17.08715813190405 17.039058470292286 16.942856844074967 16.853750796194785 16.83057141808775 16.912865583170785 17.10888641345159 17.393686404165738 17.713488519554843 17.99712298567296 18.177066173070436 18.215552635890084 18.122793370020695 17.95539518503035 17.794068295783056 17.711347059534283 17.74428426893603 17.883131192371547 18.07869800072482 18.262972185426264 18.37355047033208 18.37334762606844 18.259802775859487 18.060435970971778 17.816361396333818 17.562513714143797 17.316492682484782 17.081638379270117 16.85883941045172 16.656069989831305 16.48903761143776 16.37498146849612 16.326280368388478 16.348237824287136 16.439973406493266 16.594436973152217 16.79556944379211 17.015236393722486 17.215196250726734 17.356835578876975 17.414889036416998 17.386844617553507 17.292631854331606 17.16710627497233 17.05188098061892 16.988789355994218 17.011427940515315 17.133105496973336 17.33741000591716 17.58043082585975 17.806331167117936 17.968038084249308 18.042126549175613 18.032351240476434 17.963245677981874 17.868507012682528 17.778639667435243 17.71150092633464 17.669101293421598 17.64240883155535 17.62170184493751 17.605548172747355 17.601085661311654 17.614202094138776 17.63738593378828 17.64719759352315 17.61638372529795 17.53258709984939 17.409309693739186 17.281567582875127 17.191161202723254 17.172920650358495 17.249347403878993 17.431588393170152 17.71857932096091 18.08966566242153 18.496194002869384 18.863868745444634 19.112554646438415 19.187340049546453 19.08443941932211 18.855516574548002 18.5851478798598 18.352502777942963 18.198958435539666 18.11951626988461 18.07966974678529 18.04336341566238 17.993675506217787 17.936533429165554 17.890278074250002 17.871209651536795 17.884281207220077 17.921732311300286 17.96670895879243 17.998232320806412 17.996816798582678 17.951169101131107 17.863539059806666 17.748958110709474 17.62717742680083 17.51343423058188 17.416393445660407 17.344388464253115 17.31163991317421 17.33538409703868 17.42411692163808 17.566841850506787 17.733834611649332 17.890564846120412 18.01591521057048 18.11264214524431 18.20380648995238 18.31740915687289 18.46693957604278 18.637575701884476 18.786834336653474 18.862665339420843 18.831413935813885 18.69915340186086 18.511513127709392 18.331155241075624 18.208200385350064 18.16249835299046 18.18430978995231 18.244890851668647 18.30574816495324 18.324487337297345 18.26260211545036 18.097683716521786 17.834842528765822 17.509530154433502 17.178716942081955 16.903992432159285 16.733260897234874 16.68712368475627 16.754272582085527 16.89801976993952 17.072386684580753 17.24102704008527 17.388909752329727 17.519888840406644 17.643092041086124 17.759583566486917 17.8597053497773 17.931914753360694 17.974510591124826 17.99969279046809 18.02594041487347 18.064457234674343 18.110287210217034 18.144579526259054 18.145501997014403 18.099464938343047 18.00598182541875 17.875987338054518 17.72804861359181 17.58558870206146 17.473684188929074 17.412510802744656 17.408519738853435 17.449203249252975 17.506673648133777 17.549426710471884 17.55618490313515 17.524311912599654 17.467796233006016 17.405516430546562 17.347621038924224 17.29058739163286 17.224782638527017 17.146872817270037 17.065259642372094 16.99456559432815 16.946092277940078 16.923659205853884 16.9270547367777 16.957276086060993 17.017259595430176 17.10827509275474 17.22734766764907 17.369122310064657 17.529418927822203 17.704725690884263 17.88559077648827 18.048910753039486 18.157753201224043 18.173342020423085 18.074247029954904 17.870374181404543 17.601325387233672 17.31970830763568 17.07103915793016 16.883098819332876 16.768003827116605 16.553819729208588 16.660442786116455 16.839761207084614 17.04993171008315 17.23285341967049 17.335950613039046 17.337768608835656 17.26028186587856 17.159082817110292 17.098141759864586 17.12469964730758 17.25536331368135 17.473642462608588 17.734139947588748 17.97240490172828 18.123176110645904 18.14518394575952 18.041795178927632 17.864382982670048 17.693545900129955 17.606053583500394 17.643537933565888 17.797634841138 18.016841205886536 18.228986627415726 18.367345163582748 18.390411236836737 18.290568699088375 18.090539974381397 17.829631103158544 17.546332306358885 17.26644545977017 17.002124485899266 16.759100153737485 16.544171795291483 16.367104796576868 16.237567987112588 16.16213451836387 16.14481634607092 16.189409121052584 16.298941692503504 16.470111521362945 16.686390487152266 16.916788318716822 17.124052648977223 17.278281545045353 17.36696275601896 17.395934130313822 17.38408149738668 17.358140080379233 17.34895104333427 17.38464974148606 17.478964753986713 17.62155654402069 17.78005698911089 17.915069967040893 17.998621538714286 18.02444234388136 18.005792213339095 17.965242377946655 17.923767990433976 17.893571528220495 17.87536274596522 17.860037569223095 17.83513370042282 17.794485958493574 17.745484830093588 17.706926833848875 17.695742226038664 17.71085369942214 17.727906423501576 17.711777318967073 17.639052438032852 17.514188623884124 17.368853337648705 17.247410010634464 17.190349888568544 17.225541522120242 17.367595182170884 17.61753633502075 17.956547766928786 18.337619441219662 18.686748773553738 18.921752193563808 18.984046683314705 18.867151523735323 18.6238841395342 18.34472487461577 18.117359532069923 17.990143313457846 17.95968559626945 17.98614109570722 18.02233212081216 18.03759379706546 18.025477301570955 17.996922294281152 17.967795145410488 17.949021854810333 17.94231717729507 17.94021694000299 17.928733211718647 17.892577342185835 17.82252188282278 17.721399265315327 17.60375829189677 17.488379774399487 17.3898496781087 17.31694158445107 17.27825476686608 17.286910046064744 17.356419378698956 17.48923846341877 17.66788013145764 17.857631732731694 18.021165769453823 18.13632513481758 18.206171021363655 18.25564490977645 18.316566450715058 18.407851932992617 18.520674421148602 18.618264289660882 18.654050766813135 18.599921158376123 18.466546732805455 18.300474522239682 18.15903673976019 18.08106150830197 18.07299083423224 18.11488941820947 18.174827640999442 18.218743024472833 18.21391379966501 18.132648955812048 17.960361984100643 17.70465345737387 17.398693456351978 17.09520639951674 16.85253898440349 16.717569884144826 16.711065989781133 16.820823709744264 17.00652292114581 17.216150608794738 17.407182779668037 17.560741465330437 17.68000382672421 17.775615469401004 17.851146815142155 17.90041338984723 17.917046338307458 17.90616807276671 17.887135911328023 17.88450312932292 17.91404068986247 17.9739195764673 18.046230537159175 18.1062426452878 18.132681572942992 18.113975497286617 18.050038988629947 17.95200388017525 17.84098067498592 17.74385836678129 17.684228683476057 17.671272518994094 17.69396109841061 17.726014125189735 17.739478582305416 17.718647819393816 17.666046170769807 17.59712416139593 17.5271248001638 17.459377059539914 17.38445614501855 17.291390770833956 17.181217125818137 17.070811155728244 16.984181804394915 16.939657993248964 16.943490997495292 16.992613514834545 17.080695297631618 17.200729589281828 17.343591281942345 17.497257620618516 17.649839560741434 17.79377311711019 17.92556986633246 18.03919245042906 18.118167793571157 18.13495928499054 18.061714157739107 17.887136208273283 17.6278642518855 17.325510102536462 17.030888394247384 16.786458908089507 16.618221001312897 16.538871770349832 16.56593963896491 16.708831774484228 16.928267711966196 17.181180708975603 17.405186205062336 17.54167931433338 17.563137577528916 17.486995022618995 17.366877318952305 17.267420717002953 17.238363244444304 17.300106230625495 17.44183227925154 17.62636488538057 17.798685782821526 17.900500694148175 17.891642575675977 17.77078341742786 17.582673775029196 17.40399409552901 17.312195730065817 17.352541188413944 17.520138068957287 17.764735905076996 18.012881392833435 18.194427052552317 18.26241454445506 18.20195472016993 18.02825864504575 17.776006119672584 17.484624736668657 17.18612214259151 16.90056947899655 16.639035956409135 16.408971528349973 16.216980039061312 16.06837109832277 15.966909083717168 15.917228141871746 15.927670452936423 16.00873577878676 16.16555621965186 16.389054035189908 16.653408063226863 16.923392149397618 17.167017549370165 17.364655766810888 17.510089090968386 17.60694916573818 17.6664452549932 17.706613760989423 17.747757194613506 17.802187002622368 17.86553168564366 17.919234398059775 17.944584897436958 17.937470670772445 17.912033910060376 17.891115930694433 17.891834725423504 17.91668228263545 17.954062220904166 17.98490282368373 17.990481443541803 17.959631123189677 17.895044717335903 17.816009673725375 17.752650563175226 17.730287276812806 17.751610883783012 17.79032120703629 17.803860057284925 17.758141157921727 17.64754929261782 17.497873011673104 17.353109863453067 17.257444463909675 17.2438070561933 17.3314670204958 17.5257008675966 17.812317694513517 18.149307772739128 18.466689551169036 18.6835890502717 18.739555915559308 18.62469179340697 18.38966200807728 18.12594515339912 17.924675403053172 17.83707435918081 17.858667703813463 17.9430534262037 18.032264734694508 18.083984401633877 18.0832233835402 18.038496797877176 17.97026767668329 17.89949903677466 17.839949499936562 17.79450034614626 17.755453435081463 17.709306443343902 17.645010463708797 17.56139791428381 17.46836384953202 17.38076766406714 17.310896602141373 17.266849468175145 17.25720709169994 17.294297642212683 17.389197670917678 17.540803430753424 17.728492651392312 17.915984726834818 18.065714073630193 18.15563368611172 18.18896360286899 18.191713144416934 18.198759126591597 18.23417791588782 18.295372896706155 18.35156778251294 18.361211821293473 18.299876475820348 18.17967258842489 18.044718548436315 17.945034741838832 17.90845144063377 17.930215463196678 17.98310189420762 18.034491324149286 18.05644947646063 18.026973618840422 17.929771433957523 17.758164011392513 17.5216150314881 17.249452835954326 16.987651472606412 16.788270985044896 16.69443020467743 16.725634770045733 16.86930618646576 17.083859726543956 17.314652530249624 17.51635437931908 17.66882082456617 17.77613615433658 17.851086964616687 17.89918556291967 17.915447178398733 17.89447716599059 17.84281984375066 17.782019330951133 17.739965126869137 17.737576131783587 17.779985939511842 17.856272671166202 17.94554411246575 18.024757953210724 18.0751315479284 18.086621908067745 18.061009069407177 18.012729451561995 17.964796187921575 17.938526583168525 17.94123784281057 17.960557140961438 17.97108376693074 17.949855808102676 17.8900416621046 17.803622299979804 17.711500775438267 17.627814599088147 17.549650967305695 17.46049440267051 17.34561550239599 17.207469416722102 17.068801962544246 16.961647895390044 16.911723175773798 16.929530439720033 17.011607748994226 17.14657227899566 17.31915681545247 17.510915097791475 17.70124243870921 17.871337890117207 18.0087839663811 18.107875158898736 18.16417884843331 18.168012057010635 18.10401512072192 17.95953787375695 17.73669990487277 17.45883878037391 17.16555501812718 16.899087376771348 16.69145325295253 16.56078978934968 16.516733272904872 16.755370661186024 16.90139422687007 17.11358352840519 17.35396603569253 17.563808808198235 17.686167952896334 17.692938483928437 17.598935594078064 17.453974010203925 17.318769567764587 17.239927723812585 17.236564960346396 17.30011336204432 17.40058818836926 17.494174808311875 17.533702856836726 17.484926074837887 17.344750871358944 17.15056188274879 16.971163090842467 16.88009547360626 16.92390082461562 17.102188056493844 17.369266789745538 17.653887229299496 17.88469195871343 18.0099702401926 18.00709667280972 17.882284915810242 17.662981822799626 17.38607939208678 17.086421537763137 16.790018410713326 16.513486132770517 16.267179150001642 16.058017473827473 15.890683738110011 15.769208816760468 15.700281548149231 15.695620547870485 15.769145344851696 15.92858763231984 16.167007563532287 16.461241474424106 16.779238086837648 17.090814012263078 17.37403656536416 17.614785901077298 17.80408913967185 17.93850016731633 18.022460996817344 18.066586091318083 18.079884174442952 18.0630432732969 18.01174332314484 17.929170526143334 17.835919168836924 17.765940843702477 17.749264187227528 17.794056325199147 17.881189970461865 17.974090923723868 18.035682437547486 18.042176133639003 17.989499183946943 17.893894658567447 17.788132808838025 17.71167317222124 17.694043231397224 17.73772124777257 17.81252777975278 17.868786010091885 17.863011921318304 17.780113261942326 17.639098604093803 17.481593319633472 17.35347723366385 17.291725874467847 17.320502351235973 17.450482232395167 17.673745480381136 17.955306038371404 18.231656047404314 18.425874422855735 18.47769609522997 18.37424921570642 18.16229363524453 17.930638597400552 17.76929864831143 17.728101104404477 17.79848209558034 17.92631998353632 18.043871948561964 18.100392208818807 18.077252502974357 17.985904643780415 17.855766144668355 17.720269426353404 17.60576646040255 17.524788476774052 17.474471300409462 17.44089060030293 17.408127404777822 17.36749299158945 17.32107105419374 17.277729618172124 17.24655140463521 17.23471963803925 17.25072388425291 17.30620386320169 17.410566251720837 17.561032626813194 17.73678717151347 17.90331572121329 18.025622549428952 18.083363557375968 18.08012032650437 18.042055136156982 18.00553889631979 17.998073420935672 18.02175080240183 18.050514926954666 18.046502217643848 17.98713850030233 17.883772513946834 17.776547824087576 17.708582797522897 17.699463854576152 17.737276486960706 17.791027393705306 17.829173923862502 17.829871148504342 17.780784548089855 17.67586858025686 17.515613765457662 17.310920694418122 17.086507385479837 16.879756274226647 16.733448099339675 16.683749183987228 16.74707160240336 16.91117296852794 17.136443581574195 17.37011799663707 17.568097074042576 17.71137852377635 17.805698120422267 17.865727977925122 17.898072331110786 17.897181933338658 17.855450795995385 17.776452859803406 17.679513245470602 17.592961665205515 17.542454797796513 17.542240243206397 17.592527021176625 17.68156239846795 17.790004180063065 17.896307315232637 17.98270304541132 18.040934166811365 18.075412684034077 18.100446722234224 18.130351388420145 18.167203656639217 18.195693758943733 18.19112886632521 18.13612031397727 18.03363066950609 17.906357996734506 17.782421053586845 17.67707523702351 17.58343798542712 17.479513914251196 17.34702306264584 17.188281235565565 17.028948985550073 16.905817763216696 16.849720039035898 16.875016499914867 16.979383145868834 17.149167879127237 17.363926721984782 17.598457943770686 17.825059255315644 18.018069862969085 18.158806200260916 18.237058314719313 18.24811260149704 18.188941351092478 18.05837876244187 17.862077619998768 17.617796975903413 17.355322536366565 17.10918236681863 16.908020761429835 16.767732729852565 16.693332272991046 16.68731186991851 17.0