# vtk DataFile Version 2.0
Really cool data
ASCII
DATASET STRUCTURED_POINTS
DIMENSIONS 200 200 1
ORIGIN 0 0 0
SPACING 1 1 1
POINT_DATA 40000
SCALARS temperature double 1
LOOKUP_TABLE default
18.07467273671732 17.881898728762273 17.66456580790796 17.43100845619326 17.192995693264834 16.966065677422673 16.76871094168402 16.61999649042872 16.535783064649156 16.524469205256437 16.583643999839463 16.69898347008036 16.84614131365615 16.995502020753023 17.118754939581567 17.19556472916954 17.218392828459475 17.193934343203097 17.140638436128228 17.083051729127625 17.04475937876303 17.042081298654352 17.080301419234345 17.1532769045436 17.246168033024734 17.340113881153833 17.41721630925838 17.46431084592811 17.47465046162913 17.447552495562324 17.386851553940044 17.299285147097912 17.193598078650954 17.080424224016376 16.972341292805698 16.88327617469548 16.826759438603816 16.813181195576234 16.846835422775726 16.923848877403515 17.031933292580447 17.1523358195951 17.263617532639586 17.346261080561128 17.386842352205587 17.380683513197813 17.332427331130976 17.254593463978864 17.1646508206256 17.081345082648607 17.021006142527195 16.994469332650624 17.005166623450126 17.048829096463265 17.114965495463874 17.189811265744215 17.25993861712565 17.315454077295392 17.351870080122865 17.370267113087742 17.375995688835225 17.376595497104447 17.37967071790948 17.39121632760821 17.414556607978067 17.449849965897396 17.49410795352878 17.54177079501565 17.585899772229066 17.619889214440427 17.639334909988108 17.643507248652558 17.63592554487959 17.6238228878247 17.616676739165605 17.624256507225496 17.65469141245015 17.71293019544235 17.79978825296869 17.911672083390606 18.041035679308845 18.177565245408534 18.309928263578133 18.42769308991112 18.522869671933844 18.59059369565437 18.628812074198528 18.63729057136449 18.61660319911343 18.567758728294923 18.49273462267832 18.39561717830754 18.283615340741516 18.16718494695055 18.058896277199143 17.9712751539879 17.91431538787073 17.893469527847035 17.908673670574366 17.954538273283966 18.021467321399427 18.097283404449627 18.16894339822532 18.22406918385192 18.252212260009415 18.245924008298477 18.201711584880687 18.120790840302522 18.00932474322739 17.877791829198365 17.739411382621228 17.6080372501024 17.496266712312085 17.41438891124246 17.37024300826568 17.369442861971695 17.415199672726004 17.50732006687067 17.64066604842883 17.80398883444246 17.98019320092146 18.14862217021243 18.289064610300272 18.38629908730707 18.433552692203214 18.433541516973193 18.396680862898563 18.337172820671356 18.268447611633896 18.1995161046064 18.13324480966197 18.0667574390911 17.993493244786027 17.906106949296145 17.799350447250806 17.672215066854285 17.528855658877077 17.37814170380748 17.232057195020765 17.103510239017833 17.004276555717563 16.943677333725553 16.928190087231368 16.961684193137284 17.04563971700121 17.17877665925413 17.355998585945386 17.567174986166762 17.796653614964843 18.024237235715557 18.227733329467867 18.38645106716093 18.484604665339564 18.513691398825458 18.47340634574029 18.371184755099293 18.22074350479848 18.039996275600533 17.848622445405706 17.66555514042677 17.506727749151054 17.383443367965604 17.301595382429127 17.261715584397606 17.25962791683038 17.287468998162858 17.334961231519035 17.390919499982108 17.44490049042046 17.4886987894034 17.51724713820675 17.528578631082066 17.522872735644608 17.50104029944607 17.46353139858959 17.409922896179786 17.33944177374665 17.252150514146784 17.150283929177718 17.039239855301677 16.92789178713791 16.828083016577263 16.753327779019244 16.71690307034686 16.729671130369027 16.798074437302475 16.922725304275055 17.09786857698306 17.311806766400302 17.548227163561677 17.78826849484368 18.013047877332923 18.20620213050186 18.355860370715682 18.455516575459917 18.503600019899032 18.5020365076499 18.454478528400088 18.364919977721065 18.2370990372003 17.85319592509592 17.68468588333761 17.502087197774667 17.3100654862856 17.116074768638008 16.93139840450421 16.771036352060673 16.65185373681473 16.58903477365369 16.591714290591987 16.65923838227233 16.779520985326545 16.93040211738514 17.083999521648778 17.213074017390205 17.297679995746282 17.330101308406135 17.316456895518723 17.274367657989746 17.22738054027245 17.197933749040057 17.201078029506572 17.240802642072904 17.309846903991215 17.392701378746494 17.470525486442327 17.526234329337434 17.54817397486932 17.531536219295223 17.477658089567687 17.392161567831216 17.28313448692262 17.160149022188893 17.034141297890418 16.917510711523853 16.82361043961917 16.765146776802652 16.751644319772797 16.786717155500217 16.866147833351032 16.977625644044423 17.102508452509774 17.219332277856196 17.308226738571054 17.355099352604142 17.354524524783432 17.31066924089712 17.236138205336047 17.149117376851017 17.069499251832156 17.01478255518192 16.996538095793497 17.018173828203274 17.074561628951585 17.15371038856196 17.240099212264234 17.318722630305473 17.37863651783214 17.415001146142007 17.429214850262312 17.42742646332507 17.418185693348278 17.410068750405213 17.40985579367035 17.42145222517945 17.445469939837533 17.47932860048878 17.517837867772002 17.554306938275037 17.582155427603613 17.596771807058204 17.597132521302576 17.58664247258778 17.572863214755635 17.566163643544012 17.577658986552077 17.616940902854928 17.690040780767827 17.797937807581786 17.935850291450958 18.093535101295 18.25674227360889 18.409710394803053 18.53817598870142 18.632021851276996 18.68667319540719 18.702785993423227 18.68450402207299 18.63721345711238 18.56591496349758 18.474924772399227 18.36882414033321 18.253853987364085 18.138709235088456 18.03403945730371 17.95067063008964 17.897209341219614 17.87794786070758 17.891794195147423 17.93248977774188 17.989913052912698 18.05198185268103 18.106611173610823 18.143318631107068 18.15431754993901 18.135177781129414 18.085228242158113 18.007756950381502 17.909838280679846 17.801522149571973 17.694329051252158 17.599417863076976 17.52609736797685 17.48122999218561 17.46953265624329 17.494171634886936 17.556825058665453 17.656749417409845 17.789139161096706 17.943751802073724 18.104951321151827 18.253838816632364 18.37218602278676 18.4469254685042 18.47348858076177 18.456608421581095 18.408201850468572 18.34313116471061 18.27443365181715 18.209663057287376 18.149393792897197 18.088079835692014 18.016729238690864 17.926445528841704 17.81179176984603 17.673074267304834 17.516968958766302 17.355384625105867 17.202981783676705 17.074182735108522 16.98064190712187 16.92990415529825 16.92542840050344 16.967528026460734 17.05439095838663 17.182419873380216 17.34566179001821 17.53478373124764 17.736478241021196 17.934068963364833 18.109489082780158 18.24609294591276 18.33136637851954 18.358725320936973 18.328083902981614 18.245370566595376 18.121388375241448 17.97033515577387 17.808123636681298 17.65057770725368 17.511660028698437 17.40197852747358 17.32779582867642 17.290633383931 17.28744047789972 17.31127764525139 17.352501543175638 17.400403115487943 17.445072118596208 17.479030381702973 17.49809751375912 17.501172913319405 17.489079314039852 17.463060249971374 17.423674548924875 17.370585421687924 17.303259929153963 17.22217401376001 17.12997289302333 17.032163841708375 16.93715351962255 16.855625934255578 16.799352144924956 16.779586340499513 16.805280533627567 16.881416697978022 17.007757692626335 17.178251315686243 17.381235811576943 17.600526166527406 17.817370360013008 18.01307799004156 18.17184020681324 18.28302305513393 18.34223831636112 18.350875134466698 18.314365725928972 18.2399316935386 18.134640479097214 18.004289933146417 17.62578781617945 17.491966216584512 17.354300493749264 17.213207257231918 17.07126734222684 16.935008352444452 16.815543357820108 16.727304322539773 16.68477357868079 16.698029641259733 16.768605167827413 16.88725066997094 17.03466915955754 17.185355675011966 17.3136537800832 17.400328547803397 17.43762113071947 17.431083223076104 17.397474984524116 17.359337303833563 17.338001789067206 17.347306880754914 17.3899591719617 17.457484209555787 17.533459853521823 17.598676705307803 17.636375160141547 17.63591420924227 17.594027418335198 17.513869292858956 17.40287851099749 17.270709282373417 17.128050671300414 16.98637193781368 16.857978664755866 16.755588795697374 16.69096749868868 16.672743876750125 16.704043356069295 16.78078948290821 16.89141004392223 17.01830098615562 17.14089046733614 17.239656151782153 17.30013060879633 17.315892454584777 17.28980416931587 17.23322369439162 17.163412726829495 17.0997400350833 17.0594852112885 17.054122925728354 17.08693097858354 17.15256014752748 17.238758699401906 17.32981270435163 17.41067875805852 17.47054506584432 17.504812130783336 17.51512320661259 17.507785845513023 17.491388410218406 17.474471300271954 17.463823327383334 17.46355522148826 17.4747937600449 17.49577479811382 17.52225391104122 17.548325800247046 17.567760519379192 17.57576195025306 17.57074766592696 17.555559116758534 17.537598183103647 17.52772729381444 17.53817402447539 17.579938061125972 17.660239293415923 17.780467888471883 17.93503830988501 18.1115296835604 18.292383327007194 18.45807648645974 18.59112414662316 18.679743296608187 18.719911056733583 18.71505996301147 18.673622882537853 18.605587158562898 18.51961185349316 18.421859827743397 18.316716747049544 18.208570563084635 18.103358239739336 18.00885895589878 17.933492178220945 17.88418123379358 17.864252808385693 17.87223544862616 17.901961235092017 17.943848598885687 17.98687312297884 18.02060842064865 18.036830660764945 18.030453116490712 17.999856579720984 17.94684284272199 17.876369893154074 17.79601609326047 17.715001275511067 17.64274902379219 17.58733705444119 17.55444097577518 17.547234564837083 17.5671680590118 17.61494963730781 17.690847800410648 17.793820574916253 17.919770993060947 18.05995753983792 18.200793104640518 18.325762914741247 18.419183302660926 18.470509613523163 18.477434065567785 18.446390049165192 18.390146365097813 18.323394668464225 18.25799649427369 18.199547515371346 18.146263981621374 18.090309398488 18.02094413004744 17.928467078061896 17.80781305979327 17.660814676223335 17.49650720858022 17.329411058661677 17.17634519024784 17.052799259980304 16.97001699023451 16.93362999841651 16.944027004887825 16.997919991304965 17.09011835885136 17.214584081643913 17.364394977793122 17.530980512121097 17.703477193029762 17.868986187600616 18.013959597731507 18.126266733753138 18.197130001799 18.222263347079057 18.202029964118832 18.140892344926637 18.04657600874402 17.929204928484854 17.800413827041176 17.672327430355118 17.556371090719026 17.462022836250526 17.395697640757543 17.359944732538423 17.353107469172983 17.369589170869585 17.400834881880037 17.436983482141617 17.468861331228858 17.489725770385423 17.496140416300015 17.487680514777274 17.465701070510857 17.431848069551574 17.387072742128797 17.331571657942273 17.265547394831685 17.190297792167332 17.109090459560345 17.02750219467999 16.953180801653616 16.895143462787438 16.86274635537685 16.864440439096857 16.906443832246886 16.991501819817433 17.117923541450246 17.27907168304234 17.46347227197516 17.655710499553457 17.838213455197494 17.9938022975409 18.108542472315726 18.174114493328254 18.188917963246983 18.15751698984177 18.088672580883184 17.992731149562214 17.87925511210737 17.755485345746063 17.421617958184857 17.32874760760442 17.24087121945324 17.154004495451524 17.065779207290692 16.977928683153447 16.897658767138477 16.836969706863833 16.809689615117808 16.82697122474695 16.892780682644812 17.001080223642887 17.13591475261583 17.2746766791826 17.393769321784763 17.475027580426193 17.51085759632931 17.50632211629109 17.477334259871718 17.445450946882524 17.430971159495634 17.446639057114457 17.493983873311464 17.563327016371186 17.637171257398425 17.695566701597244 17.721522546557594 17.704759130308567 17.64293748047998 17.540581638537123 17.406739659761676 17.25265424760799 17.090296216672375 16.93186116536824 16.789700128048064 16.6759699961625 16.60156319790717 16.574370641633788 16.597358595313644 16.667129438836863 16.77357008656468 16.900933809776806 17.03032771428717 17.143170418024873 17.22485078469471 17.26768323936784 17.27239435918871 17.24775196600308 17.20841922236816 17.171525037933055 17.152709825964312 17.162533901806707 17.204122417917628 17.27270472055077 17.357233100059045 17.443618463822364 17.518554505870306 17.572711061243645 17.602383381015507 17.60933756111408 17.59926562589623 17.579652921406858 17.55784390014362 17.539760241830546 17.529299540149633 17.52815488706875 17.53577616812985 17.549409505594245 17.564419579549075 17.57519319334098 17.576721795623914 17.56655548932479 17.546469417602403 17.523134316859405 17.507390976338055 17.512214540638844 17.54985309416897 17.628787851572664 17.75114205838722 17.911107011335705 18.094906613793047 18.282667303991076 18.452133734239297 18.58348332465287 18.663837955695886 18.689886927491944 18.667595909256242 18.609136465297727 18.528374925394274 18.436849607270503 18.34179530369799 18.24664758838075 18.15321519120779 18.064019454958466 17.98346716698313 17.917336948945696 17.870992159714106 17.847295653605613 17.84520509879775 17.859605729368695 17.882378398379362 17.904256671781948 17.916827979967305 17.914101508846194 17.893336618287112 17.855158428633327 17.803199601183515 17.74348821809454 17.683621165344295 17.631642959009568 17.594672113668544 17.57762296431191 17.58257301775482 17.609150506511323 17.655772298314783 17.720984430255626 17.80397640823953 17.903757407090378 18.017308304905843 18.13778380504282 18.25405783582774 18.352385528404636 18.419906836756276 18.44867393444048 18.438430508051283 18.396802000581616 18.336677961859223 18.27179129970141 18.212199527948425 18.161270788645542 18.1150587243239 18.064059092138365 17.996650542449938 17.903161931283087 17.779433604506114 17.628891940338065 17.46252966059404 17.29675898206169 17.14975688589913 17.037426855113463 16.970234745605943 16.95183898322827 16.97972804466866 17.047288019287627 17.146212361239186 17.26819353295121 17.40539166375508 17.54994501227708 17.693317746615445 17.82626504025237 17.93968349698468 18.02598032919753 18.080267461639675 18.100848312973838 18.0889399656726 18.04799231584096 17.983056656112684 17.900427073548517 17.80746049919377 17.712313328347427 17.623383622987145 17.548419803770933 17.493418973698226 17.461541762020772 17.452336827184894 17.461594641902252 17.482067349107858 17.505034349966483 17.522317478156882 17.528056775092793 17.519574209524972 17.49704464106766 17.46227525451019 17.41732320579845 17.363687061978556 17.302395682152873 17.23477135854192 17.16331399128153 17.092202551870184 17.027219290237984 16.975206101450247 16.943279258840253 16.93797204687116 16.96437786144825 17.02532885500697 17.12066455463759 17.24667240937732 17.39580586662358 17.55682992666043 17.715595725485098 17.85661229919396 17.965365453876807 18.030955136505103 18.04828550072535 18.019010340420625 17.950823891367268 17.855324415112012 17.745204549052378 17.63164712164054 17.522527637722398 17.26589934985583 17.215120314322483 17.17564334769663 17.139464772214787 17.099776496346227 17.054023825766702 17.0059032570406 16.965215066744936 16.945201374532207 16.95805396863766 17.010130469140282 17.09865344274621 17.21120886389117 17.328432865801243 17.42921551668205 17.496868564399893 17.524261500737023 17.516121507833102 17.48755280172244 17.45912671802997 17.450146193578206 17.472372333790876 17.526314533050808 17.601208297784723 17.67845227956351 17.737097021487436 17.759414838610013 17.734801032105192 17.661107619863007 17.543590048888802 17.392476642729036 17.220414346780096 17.040677294676215 16.866335582347673 16.70998794413482 16.583452438562436 16.496997314940458 16.458076168110416 16.46987019711615 16.530110721871985 16.63065444918081 16.758151457330047 16.895902620081213 17.02667209091045 17.135880872038012 17.214397930329532 17.260184716952462 17.278342463662128 17.27953800962661 17.277185114743613 17.28404260064178 17.309043815172377 17.355178479823792 17.41904271087105 17.49221133687512 17.563970446282987 17.624445486285275 17.667050341273843 17.689545141430088 17.693630076016166 17.683578422207518 17.66465655268572 17.641936140290962 17.619717895000417 17.601389846939483 17.589340898336502 17.584637474657608 17.586492283470147 17.59191195511422 17.596051695355285 17.593576192615288 17.580804074132317 17.55789435532697 17.5301466526945 17.507759942095984 17.503963255338288 17.531976819295128 17.601555037361866 17.71590326530508 17.869694649035537 18.04882655544045 18.23235540267964 18.39656560105445 18.520357545466617 18.59038279961405 18.60409897345197 18.569498309368186 18.501560880085297 18.416893674364385 18.32878231294944 18.244561942487046 18.16598264906773 18.09179386975361 18.020876003544696 17.954297604124772 17.895499137550104 17.848846674329202 17.817510672802406 17.801753740668644 17.798349339904732 17.80128062496643 17.80335888742215 17.798122417176007 17.78138397367315 17.75204287069137 17.712123916368814 17.666257334906266 17.620845583878896 17.58302692001668 17.559444530479876 17.554931810925858 17.571476339246335 17.60796535593262 17.661000947689182 17.726526988549963 17.80145851938362 17.884356123310955 17.97463010955543 18.070602529881757 18.16752860456002 18.256903305778685 18.32784923071504 18.37031429235157 18.378758125019544 18.354578605473105 18.3060125130553 18.245402346363704 18.184921397847475 18.132460913960657 18.089172007087306 18.04937182698976 18.00264927098997 17.937398473724876 17.84474697800429 17.721834801122785 17.573562485861913 17.41226865179712 17.255330620387948 17.121308233793936 17.025756615380434 16.977986057471746 16.979728317367073 17.02595989138217 17.107312778094464 17.21294345220315 17.33271293483183 17.458066955138786 17.58178908102842 17.69736793854792 17.798748233534287 17.88076360866317 17.93994881267346 17.975126908064983 17.98733962460316 17.97915559458431 17.953786434469443 17.914500991079368 17.864564607534298 17.80756969306263 17.747803484077853 17.690304138786068 17.640418503631697 17.602884304545896 17.580656612839213 17.573860657276658 17.579326947836012 17.591056845681628 17.60163414709936 17.60415065234317 17.593900892255714 17.569156499124915 17.53078144908991 17.481054645074785 17.422454489858666 17.357083959567298 17.28693624611023 17.214653733692177 17.14417604486015 17.08082882357287 17.030795510858095 17.000236311457535 16.994391185201827 17.016871713980624 17.069178413527887 17.150395489698457 17.257014887654123 17.38287219125709 17.519220507637062 17.65504352878533 17.77779500826131 17.874750273847766 17.934963470216488 17.951466598427746 17.923022615483358 17.854711676230057 17.756991999845553 17.643467750681133 17.528072260957433 17.422471228622477 17.33422572068377 17.175481783293733 17.16307090771563 17.164862480902173 17.169708898124277 17.167419452467787 17.152173083868288 17.124950933176123 17.093797912135674 17.071444003129038 17.070905548961097 17.10058699113979 17.16067731422778 17.24220228805573 17.329187926207176 17.403357153639067 17.449920675679206 17.462566650316628 17.445878162694505 17.414168199400724 17.38694138293714 17.382440038792467 17.41148586003175 17.47373711621235 17.55756632642427 17.643416819426772 17.70928616895924 17.73638390663277 17.713201354271423 17.637052563765792 17.513192727878 17.352434626219562 17.168456754642172 16.975707886171346 16.78821565094988 16.61906312305772 16.48005902412781 16.38121581121602 16.32990984353573 16.329850624953007 16.3801454420712 16.47481136316939 16.603065731354082 16.750591354006403 16.901705680618498 17.042029394072856 17.161000163062266 17.25355473853988 17.3205310457937 17.367709284035787 17.40376473834193 17.43765961811786 17.476146192088482 17.52207126987673 17.5739936478956 17.627210323563013 17.675746426139565 17.714467726746136 17.740475934895727 17.753370402983645 17.754557076502653 17.746207005198844 17.730500587246944 17.70947919137556 17.685383467112217 17.661033729296506 17.63975768014627 17.624619847164524 17.617151646171987 17.616206127046407 17.617709785318098 17.615795559025567 17.605156272130923 17.583784876040685 17.55495802251483 17.527559694670096 17.514482980547886 17.52952855250396 17.583636458261893 17.681389453344444 17.818652723043932 17.982085314534046 18.151014221035343 18.301640800569935 18.41273000565186 18.471110472885215 18.475000155348038 18.43375075829884 18.36398345471381 18.28364603441948 18.206429139131302 18.138715540833388 18.079937518949723 18.02560354779443 17.971180074983664 17.914951872672567 17.858804612965166 17.807011848248052 17.763963306714096 17.732027413947424 17.710445132383878 17.695571198315296 17.682205106701446 17.665391726597505 17.64200927328938 17.611674226377897 17.576840532489634 17.542255647138283 17.514021024139815 17.498422399588648 17.500623616662594 17.523406060747117 17.56633490702725 17.625810290668472 17.696209737368143 17.771788776957308 17.84849230225372 17.92471780400005 18.000529365816785 18.075660907997964 18.14741277127293 18.2097668075608 18.254516249410575 18.274143201679696 18.265142899022813 18.23010117567722 18.177355415791286 18.118240609088748 18.06307650196427 18.01756275144306 17.980928892971825 17.946347607417028 17.903278854008377 17.84091196123928 17.751737556796204 17.63435720691233 17.494814227129396 17.34601689953479 17.205270541691057 17.090485842089812 17.01610640503424 16.98997242641463 17.01207011714992 17.075453592751398 17.168816852936487 17.27960458071705 17.396484004194274 17.51049880275602 17.61500358623953 17.705068737077948 17.777110402581236 17.829062747775517 17.86083245178391 17.874483935466124 17.873773825910522 17.86311062015758 17.84640553996727 17.826346015791664 17.804365985942386 17.781212452861766 17.757739332848907 17.735497145504823 17.716800285475188 17.704168291546765 17.699297318457994 17.70196528419417 17.709405727651728 17.716578936034157 17.717393624785554 17.706441043741854 17.680485076036952 17.63904362305524 17.583889378456323 17.517904032573895 17.444049729457372 17.36505768878635 17.283895863719874 17.204541930454635 17.13241144272373 17.07405136283178 17.03617314224978 17.024433615582307 17.042402522969997 17.090957622303375 17.168120634916647 17.269224637303513 17.387286146002666 17.513481735544147 17.637674437108807 17.749015503508108 17.836745342800185 17.891342791898303 17.906028229433918 17.87833336989147 17.81118693125586 17.71295556655135 17.59620574338521 17.475454076294337 17.364545994708546 17.27433134000554 17.211041478858267 17.155812648567913 17.174546700389318 17.206547095597305 17.238712465997075 17.25889217690946 17.259380878145606 17.239528822239272 17.206237006014284 17.17181468340486 17.149765815824274 17.14997432978547 17.17503594395271 17.219064303136157 17.269429941732717 17.31092107847769 17.331022738226697 17.32458174429921 17.296199889001805 17.259341753299193 17.232239845576185 17.231868288540777 17.2680435237289 17.339716797161852 17.434709785508353 17.532858092778554 17.611325525516165 17.650222970867556 17.636804610050778 17.567268663240394 17.446170648907437 17.28423634233902 17.095662888794514 16.895799634725826 16.699615015874237 16.52087918029772 16.371734029664566 16.262315244820588 16.200232272843532 16.189884354373127 16.231740260691087 16.321829677073833 16.451757893704258 16.60949722075832 16.780989669948973 16.952281353316305 17.11166010354089 17.251229435977546 17.367541047640522 17.46120826843428 17.53569333892956 17.595642053485072 17.645242897449183 17.68710532717235 17.722011139937194 17.7495505016119 17.769224515812898 17.78134102368619 17.78716522271665 17.788271923380147 17.78557605171651 17.778739924733497 17.766431074841933 17.747389716100543 17.721773736642966 17.69203924169177 17.6627712585301 17.639327946142515 17.625730071785263 17.62268648539624 17.626758309203044 17.63129267920973 17.62899701069185 17.615227061816373 17.59065524709877 17.56219737960372 17.541772585587797 17.543262484060588 17.57856290050333 17.653780832542168 17.766551647609482 17.905282835537406 18.050848890830114 18.18072005403619 18.274672531831374 18.32037654278515 18.316806504755046 18.273976548870113 18.20891454202009 18.13942910051266 18.078228580455086 18.02973708303292 17.99061514071203 17.953261641652176 17.91035917038004 17.85837279999805 17.798735267953035 17.736679938193376 17.678668669857984 17.62973076834267 17.591786208673632 17.563428332452492 17.5410011451728 17.52036232244194 17.498593825303466 17.475097450725332 17.451858914720873 17.432980265327355 17.423719435743738 17.429250303685613 17.4533168205256 17.49702931029903 17.558195769767767 17.631596345953202 17.7103293552123 17.787839894969657 17.859778898188296 17.924768591815578 17.983609666432955 18.03727528751375 18.0847695605926 18.122136181971833 18.14338612745701 18.14307919661585 18.119299286457267 18.075411118845622 18.019536998839595 17.96185370290264 17.910902136082637 17.870512612033046 17.838532405803075 17.80766371305484 17.767922632993212 17.709842584469957 17.627544835982103 17.520971411250553 17.396768565450024 17.267530175900255 17.149438526369796 17.05877852654329 17.008218817548343 17.003943610647063 17.04452519318698 17.12185028834257 17.223657405281266 17.336651174583846 17.449047543430556 17.551847974686275 17.63888754665046 17.706297181583928 17.75211272313079 17.77635561550382 17.78134766851691 17.771725196298235 17.753769052182232 17.734111167546473 17.718280133793638 17.70965548759874 17.70919254142334 17.715923361821854 17.72793231873874 17.743356976090308 17.760991820461832 17.78024756349593 17.800503804533033 17.820206923803678 17.83626098918605 17.84418277266904 17.839112388276803 17.817268293958733 17.777125394090657 17.719715074109384 17.647958539729053 17.565528670834986 17.475996082498398 17.382768502977623 17.289749777865982 17.20213308724685 17.126646223285213 17.070916980610793 17.042144909276285 17.04560088558932 17.08346878085472 17.154297500577176 17.25306698823674 17.37172885437118 17.500054164513955 17.626635541248216 17.739916547788937 17.829177770206137 17.88549408296508 17.902722324769783 17.87850144767096 17.815058727859757 17.7194543291295 17.60293364829044 17.479339809677708 17.362917896033395 17.26606892330376 17.197540008280527 17.161260572300773 17.199983243748353 17.24112031381288 17.29092677637564 17.335590579839458 17.362507007980152 17.36357582606334 17.337708770464722 17.29135413788865 17.23652170926784 17.186837705503162 17.15301645256839 17.139379699732377 17.142635090609947 17.153308010414246 17.1593525244165 17.150790158137482 17.123866319855356 17.083261701551496 17.041413497846502 17.014930883474957 17.0191586748532 17.06271774304351 17.143946514798927 17.250489838216627 17.36211036782107 17.45565201487584 17.510446165930645 17.512526764768317 17.45667798327148 17.34621951297733 17.19115333982981 17.005611789986425 16.80544098981333 16.606391366047045 16.422995676198255 16.267958430953083 16.151796315830907 16.08250561352914 16.065129892162773 16.101235090926956 16.188452306827774 16.32036214150555 16.486978503384826 16.675903865142054 16.87394999183039 17.068812165964573 17.25037731305062 17.411422962956987 17.547692668423448 17.65749149796732 17.741015360108456 17.799662950142466 17.835586828476263 17.851644587439576 17.85166058174222 17.84061210206848 17.824257549223976 17.80800062854163 17.79532641817445 17.786590233193433 17.77893950666558 17.76764700459761 17.748415192405627 17.719687460102644 17.68393623088567 17.647290241975135 17.61752176409114 17.601089410127603 17.600388102699068 17.612399198438496 17.629469009087607 17.64209147379802 17.64268773857069 17.628902364219822 17.60512253821087 17.581655148228855 17.571865966841212 17.588198073433595 17.63819719409581 17.72159377272669 17.829290101165157 17.94478903842168 18.04805442086829 18.12097302560556 18.15274638535837 18.143175766248195 18.102334527209827 18.046515982115512 17.992002637334643 17.94924803384694 17.9198782438022 17.89756547344585 17.872025792213254 17.83409220150347 17.779612118783394 17.710763333912713 17.634698881526905 17.560527521439475 17.496086540011817 17.445740785359444 17.409805698818296 17.385482553303863 17.3686806862025 17.35592304047979 17.345684143286963 17.338860179807885 17.338417131275758 17.348451783247324 17.372926222319737 17.414321646139534 17.472510957532336 17.5442359717327 17.623532875404074 17.70315623860123 17.776578104652952 17.83974520185246 17.89174934003642 17.934011638022056 17.9683315008369 17.994821123194477 18.01092811813611 18.01225377605071 17.99489534200575 17.958108193616 17.90577809166437 17.845757096429253 17.78724657205993 17.737430446022067 17.69888019496267 17.66876214735128 17.639977213831315 17.60361351072478 17.551811438452656 17.480266486577065 17.3898623770561 17.287139705424185 17.1834577455945 17.092905347636783 17.02932087852589 17.003118443616867 17.018815089702098 17.07404496822412 17.160387515282704 17.265673104935054 17.376865743526682 17.482471008347762 17.57379009616467 17.64502874395494 17.692846698571312 17.716044899818037 17.715709996270427 17.6955864694376 17.66213208483556 17.62382827762009 17.589739536154443 17.567740759627984 17.563011055310078 17.57727341274965 17.60895434157371 17.654104578091914 17.7076779744602 17.76467408601971 17.82074327943505 17.872124453386995 17.915145108711734 17.94577932447611 17.959742986842667 17.953263795585006 17.924182573272002 17.87274878752136 17.801602619954554 17.714935719320227 17.61735981277673 17.51320197857718 17.40663771022971 17.302475037253622 17.206932727993607 17.127731648701584 17.073229687895058 17.050868524417165 17.065515290559144 17.118239638384587 17.20579673852862 17.32081901032684 17.45258500477355 17.588207849400526 17.71408119861853 17.817402946079344 17.8875982073612 17.917509346222886 17.904276800662135 17.849837627429537 17.760913512442414 17.648330556878246 17.52561258090132 17.407024904591708 17.305483606289695 17.23080387381738 17.188572349985222 17.179628801214186 17.29023876181497 17.345465188507934 17.4