# vtk DataFile Version 2.0
Really cool data
ASCII
DATASET STRUCTURED_POINTS
DIMENSIONS 200 200 1
ORIGIN 0 0 0
SPACING 1 1 1
POINT_DATA 40000
SCALARS temperature double 1
LOOKUP_TABLE default
19.257689038164667 17.97957184962657 16.753952796375675 16.32634457668956 16.31387441701277 15.977227286316475 15.175948296908933 14.308047336659394 14.221290062472471 15.0614545469199 15.734137016440748 15.95390759501378 16.2138403739721 17.356575766516364 18.545079911018213 18.40756126242724 17.289651631858522 16.20194269612576 15.969354043827662 16.432939090263027 16.53944762823934 15.939898545647658 15.520576011613418 15.736227823928633 16.24924770921922 17.085102912785594 17.791956400558732 17.429910525403706 16.226986252851642 15.694439173038955 16.56184604472518 17.88825521136039 18.17508827453491 17.18825405707719 16.006584430651973 15.42214141547434 15.100049647181693 14.943814178932254 14.965125717670793 15.448805765433868 16.677597465953863 18.04686103533578 18.91455503192974 19.300510668491683 19.567145932996397 19.380580677331423 18.44594405921775 17.2975662879077 16.333609271998196 15.460385420003913 14.677979639587672 14.182675425790185 14.087495175066275 14.711084613446062 15.748057684842689 16.38507649293631 16.466819468274675 16.433935752646356 16.40279588391621 16.233806269543198 16.214522876747047 16.410047733634002 16.511069925330474 16.101953449806963 15.605695298582901 15.565239383772541 16.086631710472275 17.10967652747341 17.603174163588115 17.466598918736754 16.98135682400797 16.69519163728081 16.6104444238965 17.036010469598793 17.941189147711864 18.380055826671516 18.19491467635729 17.715140217978124 17.41702574038063 17.430659558946576 17.88349604225978 18.99559034290243 19.797901569404274 20.020732578290033 20.18701853943341 20.470923376962496 20.548394511556467 20.447812705599386 20.438137981508916 20.61535020277912 20.420377085652298 20.071706254328173 19.60600738327517 18.790132353187808 17.471201789202958 16.14117744851542 15.840546065662991 16.26259267371789 16.50994595724403 16.994216712055824 17.79783661830841 18.683091265316655 19.578488806938232 19.706531319296893 19.183653925727338 18.86442490753649 19.134016042470634 19.693387643220504 19.589301512805914 18.373766535929057 16.77360705691505 15.748234343761016 15.723812062116115 16.110856836081215 16.078081585978673 15.932669592949608 16.10412108094584 16.38351255128016 16.736977394120657 17.226962299730754 17.93991277219194 18.511263109574898 19.005281692127202 19.69104416624742 19.780302610984634 18.95413440293974 18.083059390536825 17.45969611851875 17.358654778353433 17.32684996625338 16.981408294525142 17.18192378348931 17.987858594364564 18.79616931202053 18.912315404676235 18.345738505162096 17.634561030251383 17.05706393328439 16.25160289654077 15.84832828269968 16.132620794540397 16.35850554189832 16.538559328103762 16.487931296768128 16.335733505275105 16.100226829626855 16.06315545852355 16.07991832525023 16.57438399218654 17.860710015900782 19.461274103939427 20.246046737745186 19.990269965020836 19.460207732955922 18.836683807798178 18.34690724112224 17.88696307619398 16.988851333478014 15.891644163352995 15.159159538703568 15.163563172554824 15.859640104806457 16.499679913921067 16.800669822982893 17.020192111135035 17.50007492878413 17.9696701471244 18.408419376678694 18.563442228637378 17.976153946557123 16.955912298214884 16.066800769238316 15.856131414864874 16.591785547476043 17.68705550773647 18.507286622157338 18.77501572138739 18.188858990480966 17.46718967158487 17.22497540553942 17.315390508333437 17.0107255542005 16.209731955379166 15.492785823183658 15.01951299969417 14.760985577254564 14.68683017896878 14.97825320345884 15.647797193150184 16.560328926104578 17.671201790940053 18.67434372688784 19.360667548194115 19.981852154864683 20.25658405875394 20.149047906108283 20.320236130032175 20.334858233786843 20.079232786558524 19.842476404791494 18.92739843411463 17.727764566031045 16.55971166575045 15.895640489253392 15.819752575699768 15.496891074460468 14.578978438092593 13.905384015752901 14.183033810718936 15.113831429173613 15.568492104139343 15.568745843207665 15.947639044289689 17.41079920369044 18.9388634389643 18.92188218440625 17.85022866776871 16.94093021832103 16.98066701866484 17.643516068457345 17.632617095980976 16.92115203519328 16.58712188278188 16.922867077791985 17.458011206241927 18.300638056372122 18.843632202433273 18.115275174233332 16.590503503721262 16.030559220454563 16.93906745314825 18.105287032425807 18.17711740120524 17.03454077517431 15.704225945129085 15.151138273783548 15.12540709701147 15.41231638927889 15.74091327197663 16.253765884397975 17.304501245143594 18.501368108073844 19.338542830592004 19.644579894442355 19.66399815164162 19.302606311542704 18.29373076419203 16.93344557347073 15.71980715706944 14.775993236994454 14.063456353524323 13.720913560970136 13.985132539960691 14.944000158903998 16.025610959016337 16.738209084842858 17.309515703309625 17.814402485101485 17.875009903985994 17.22803391771357 16.61462673675858 16.47429336385927 16.461647674876527 16.176067330718006 15.952693145435916 16.164599792332623 16.607647214841926 17.03270295860436 17.077126121608703 17.08360614037033 17.042008246531786 16.935346595558087 16.54368728011929 16.726595168136956 17.6143648631316 18.039576552725674 17.942551011692377 17.740804418488583 17.50618807092599 17.14418085791755 17.36612810506633 18.68176497952209 20.006336838104705 20.801790293756216 21.1251230731981 20.939370347157524 20.245261119144466 19.55975017771686 19.344909945819097 19.740444744643415 20.11736020629082 20.21098025166084 19.613841905659203 18.36436074151339 16.9256805463071 15.770340936118188 15.694480401026112 16.14463926055931 16.233944525406553 16.37805814020899 16.871044868599995 17.740274117189777 18.808709881873785 19.152908074310126 18.773039002637443 18.498954661973567 18.613129526339222 18.887488908376728 18.738222936322074 17.636015347343022 16.093956263911146 15.119447921216764 15.41407842107836 16.388609004580488 16.796578726412168 16.80361003695322 16.985014246929545 16.993127725594015 16.841629096837273 16.987964312506016 17.60208141358119 18.229631891929966 18.766992659136363 19.479051194656485 19.573467229002897 18.62905812386426 17.707263663783056 17.251569719802138 17.223373181743405 17.14688523501532 16.928872001296686 17.41273963950104 18.53306481188979 19.624608741698484 19.685473729668065 18.605700249886116 17.33096900565521 16.41117952096096 15.643201089527283 15.459330968880325 15.73344338092723 15.77365304860696 15.741134724418577 15.745095155182876 15.841170350154158 15.858834254441158 16.141695883032387 16.285995639302875 16.38286999582978 17.23054695194003 18.633075004078982 19.39404298454687 19.14846287269894 18.58069659000958 17.963770863411995 17.816770482840408 17.78808392830403 17.072210411881056 16.000688762251592 15.317671915965578 15.360538845825719 15.984806593761709 16.347505825127303 16.3686115841229 16.46453676456154 16.87692833765574 17.312080817815104 17.878549020250116 18.41341145924683 18.26047739050075 17.51635331510945 16.314753097284438 15.338535745493727 15.550478524812235 16.436941986955883 17.183800997701475 17.593949946856046 17.42240659998066 17.136129328187828 17.02947533160017 17.12495091508885 16.726107928793954 15.839263834104948 15.384292350329648 15.268861528298924 15.156926606206802 15.052835276537136 15.364392249735507 16.130675493931932 16.76722066624701 17.327436644379823 17.97177110651819 18.678102539581925 19.426319664218003 19.693203583265877 19.386668432348532 19.343096893688347 19.377591897860857 19.37512211436413 19.412679698765526 18.32381687935471 17.555368135687182 16.68537556023408 16.10214103330542 16.26576108438684 16.141929963269913 15.119831172136182 14.294443000045687 14.329926012559465 15.014399774218736 15.432881220837587 15.522996258846975 16.078753513736658 17.615866633315875 19.224909573166148 19.397797477552732 18.61862891908457 17.84089352561765 17.687134738428277 18.07946085915272 17.88868570230924 17.418789818353844 17.536414916786622 18.173560242440097 18.755070939540012 19.40257108483838 19.624188245268606 18.684940210359457 17.231386604158416 16.81693950984191 17.583861550567104 18.349462411414322 18.212749160496546 17.305462879428465 16.374055402508326 16.05557166369753 16.07650781525055 16.414599713626785 16.81970240730787 17.219609641668974 17.90981460434498 18.68459599295695 19.23540580008722 19.49776266657318 19.524430826186936 19.053376593020726 17.937525634860243 16.50535203449647 15.392012148857795 14.724098061284003 14.246204076972624 14.10000791080589 14.72709016385538 15.980245069763651 17.056299033099346 17.822840136328107 18.750524893232427 19.54482379277914 19.64015555894227 18.72777069673946 17.532585444257215 16.81629620808594 16.606560972507125 16.536275384103842 16.59571466748927 16.916631795602147 17.174400518112613 17.135325399841427 17.139401982785188 17.61777871789496 18.063133116436035 17.944973711222236 17.02624453098369 16.459492487666186 16.65207497555258 16.846190508726284 17.080921246380296 17.448307310364033 17.54082359747535 17.226093758261868 17.453220804224188 18.76017398091649 20.20336185581865 21.240020398976444 21.54447393951374 20.81506828762403 19.404158536907673 18.257614920421204 17.878861333319808 18.47525305187021 19.345094745160033 19.725982988058313 19.07753037388087 17.7161359404598 16.42274698287151 15.716325817938477 16.139005182362272 16.925560931949818 17.121992137727272 16.994019268685495 17.131143723083525 17.771264511988985 18.608511208757967 18.647394301991234 17.96947021567679 17.5923807637124 17.63827118346615 17.723227105403264 17.67905283214053 17.224962341661346 16.423118825749675 15.821564364904342 16.178719930337774 17.250809488519163 17.82695475543499 17.86219086009246 17.960873936574302 17.810122296112255 17.453377732359716 17.515580032181376 18.21440084037798 19.04159973065729 19.726865327060267 20.405072252490953 20.36571765920904 19.180394060449625 17.944342309748624 17.416251645392762 17.448653075150812 17.48313387328645 17.480178178078113 18.097465717141308 19.223447321073955 20.264656905755686 20.182141544562167 18.872048605814815 17.406373163988317 16.40488174477845 15.733665119437417 15.556423298216583 15.72889042156704 15.664782246803213 15.614900282162212 15.85272632107651 16.16168465312539 16.1545507148216 16.44943521393585 16.72552240439941 16.53210348266266 16.852657433072764 17.876033697371707 18.39754344956767 18.055932731307283 17.768211805760874 17.826966354888956 18.48149622912503 19.04004236039033 18.580736442484234 17.482606926882998 16.57241834074024 16.22178750991982 16.184143423633625 15.929039247810504 15.655631065498687 15.785384487060249 16.333375525601628 16.762253089982824 17.170695342252472 17.737724216073197 18.062537353141405 17.897826664415835 16.841079735926332 15.568486348817574 15.44556660760691 16.049990598749826 16.383657897708474 16.525772351173 16.643995389387687 16.85624945261471 16.869112846074156 16.84146717070598 16.420239048111284 15.609091630741089 15.450713180284739 15.833007359918275 16.17002115354376 16.207880855921577 16.412872566506813 16.993601308027067 17.279571288013187 17.45727719890269 18.015252188967253 18.84782292021132 19.50589143629516 19.363459080748164 18.55297039407636 18.159051083871866 18.195835631494507 18.33524797503602 18.527959239471034 16.920742698320325 16.918325583283554 16.665289203454748 16.49855583940157 17.12876276618668 17.446958727137222 16.64556008341244 15.642201441968178 15.095701558914833 15.282498516856451 15.642894532784315 15.90060154953322 16.445957116614196 17.75850970014125 19.417274255056963 20.015234354931465 19.603731983369066 18.675919851239676 17.90465915227472 17.723730012067175 17.469806529042977 17.60108829644741 18.315006962192435 19.054785602792833 19.42894403252037 19.751304582240596 19.710852665126016 18.748310666360556 17.536082398869485 17.205947084667965 17.69230775978316 18.114958069786162 17.99925189927274 17.515092717780075 17.03454656770294 16.790554479399358 16.633230851643354 16.743554579187222 17.000971815025835 17.223958090829825 17.638568201238943 17.99438003624171 18.288804671689565 18.727093437363884 19.09015344462607 18.71049066321295 17.662378013771647 16.501510030799228 15.934382427449604 15.754327577896952 15.399307673590721 15.18187212976056 15.852285369264568 17.138204332571465 18.172537736725516 18.933471796767222 19.90086288340893 20.58813803052081 20.656757570417234 19.885767929999872 18.552696331027633 17.419258055258354 17.03247460697212 17.088199934275373 17.21239661367232 17.402892391381116 17.41362173530964 17.01075464339697 17.0054927272913 17.92690027710059 18.879340729410767 18.880824753915732 17.708228223430574 16.453654828329785 15.676123751817586 15.463267710618878 15.983636899349197 16.782137567894644 17.16100532242596 17.201372852284944 17.827232624961653 19.247246867793418 20.567698995005205 21.460010901923447 21.626198396539056 20.596605613047227 18.900947277149367 17.647934982592083 17.163147487394003 17.689260475695914 18.440360453679098 18.57019445414545 17.97109701512452 17.108519910305763 16.41865336570134 16.2310217259795 16.935695983866026 17.94714567247802 18.366838085831432 18.173203785132625 18.025374807204013 18.1969012997822 18.443260265055045 17.993062366797474 16.99422195804783 16.432838211207358 16.45311929671117 16.563569443648277 16.65159133456917 16.836093245961777 16.929697112066155 16.845754274234302 17.2554532929069 18.29062968390977 18.834213191854737 18.724531094235374 18.6313684067736 18.455929734358605 18.259575117929078 18.56141662834554 19.464152041383517 20.4254091348991 21.1703149065939 21.527986731073078 21.000027037207825 19.479221084830108 18.122423713505896 17.749695656601233 17.92758521486761 18.000425072864992 18.022961606442664 18.55905312229489 19.467650780971304 20.195757265250116 19.912256042593615 18.61170351904999 17.355822795956417 16.666166365081036 16.243601483881683 16.018283766854726 16.14143935646623 16.224201558405337 16.438797674486977 16.973463465057037 17.265838405807475 16.941879293647734 16.946735378317584 17.29095453458778 17.149952126667607 17.14460969075784 17.64611865118833 17.78497062411549 17.354489175914576 17.365756598081905 18.06648893275311 19.243533303014416 20.165609556660065 20.08889438216422 19.28216848822026 18.326647265496597 17.6339467132099 16.99752249886284 16.291496178987153 15.686642025923847 15.513820244380298 15.882730196283477 16.170544406502376 16.364319309638084 16.840107067812202 17.534587115216613 17.904980404326448 17.255645239170775 16.21295431522008 16.1447609534998 16.605689753538428 16.437958030981154 16.072985666608023 16.21248097546955 16.804877806404086 17.16829591484572 17.25526198302146 16.89982025683409 16.22325407331837 16.148816107481288 16.573160952836957 17.00353134970142 17.046176922230803 17.029788789476143 17.237996383992783 17.29870984948913 17.60239623516242 18.50072818731519 19.4662081969375 19.69361098421275 18.83613686137264 17.436570243700313 16.756608781561077 16.695044841895747 16.675468763423552 16.76200924828888 15.084087477021235 15.638135162369476 16.18961982192806 16.80017703542442 18.029191953411154 18.788831646703933 18.303572239274523 17.23326978287927 16.317591454564734 16.258100307573166 16.645523038984262 16.94740920540605 17.162258166501832 17.979127177392265 19.591051575437422 20.653658905304482 20.642440878207452 19.583645446917604 18.174586709472674 17.346002783074795 17.021844243754945 17.72144453478133 19.032367005101126 19.84311624999357 19.92182781514979 19.924833899783714 19.78574627760612 18.940033745522477 17.788590999271825 17.2202668433716 17.324381518209535 17.4555536311996 17.338813013497706 17.139540478127273 16.999756184139986 16.771745586664473 16.49909495340679 16.400395636101564 16.418448905585368 16.42449388087744 16.582400233170308 16.624269927381082 16.869844116979387 17.64402025697846 18.369013585805586 18.18690041651344 17.4615692536876 16.930418362045877 17.109272308261197 17.257687647902035 16.71972149564604 16.11903039669266 16.43693576903159 17.44304038432527 18.47598034375964 19.41960390234524 20.30425428738402 20.576091622534907 20.359926531211546 19.740663390384515 18.638845823667637 17.52422470510961 17.29169685364106 17.71904560422498 18.057761709187904 18.121904583646188 17.7742859361833 16.89558295165373 16.602666715104153 17.626095769675317 18.900278923179933 19.08432321209921 18.072072638033656 16.827941514174153 15.63831484199793 15.15216619651259 15.687625484908772 16.416514161914762 16.66140426515282 16.84196051432292 17.772662259414997 19.275358026433544 20.498792658402646 21.273574123426346 21.46288562578432 20.458996435126195 18.738210206016603 17.42970377442629 16.804305678403143 17.105082798326837 17.46452304635529 17.287930287663187 17.013477886695462 17.07121232681962 17.280108890287877 17.55606687340517 18.106724421593782 18.75114647573189 19.1239490860543 19.02704414597334 18.855831871923534 18.669142035534076 18.338423096021444 17.572275548572403 16.621014196371082 16.103608271450145 16.16657134655569 16.341044733499366 16.22017213361311 16.28023520135598 16.698291922868638 17.039185827739047 17.756044232758 18.899889753121823 19.31820952707062 19.0006340020841 18.731832143831873 18.53650975248238 18.511332371900142 18.971066897709047 19.898877911082494 20.858199084156137 21.575338676899317 21.44859519337567 20.299841235819642 18.566639292726045 17.558268442605065 17.809414015167604 18.42106570616835 18.551337160905376 18.49477641597286 18.869107036248813 19.465274479250027 19.7863573435553 19.434900047130448 18.40652361127422 17.526734321965513 17.098479806443 16.68348930802947 16.286755339641054 16.371053417545507 16.735998006868588 17.39322284069052 18.235003548362357 18.448531211857542 17.85116584176148 17.551019900379917 17.970558885707998 18.239920595431368 18.24496933898405 18.203710295821317 17.78763343449648 17.1946017256056 17.285996912883014 18.070868982542727 19.13909536105997 20.071055150025796 20.40262759505874 20.178110680007695 19.59398911741364 19.054637610430017 18.47345367330536 17.771816515924257 16.83806875637552 16.068252303871336 15.951003084737115 15.952863751391215 16.032785153320983 16.487289997822597 17.32589686569236 17.915111044768597 17.57133548849602 16.86674821775041 17.002500899390284 17.514782834963153 17.0687387430576 16.189479397677847 15.970310239945201 16.450751520464138 17.116133410279126 17.617258117872034 17.553825336250828 17.172365930256216 17.136226249217124 17.320721978031308 17.588252111176324 17.636568047120434 17.439969331171234 17.264947133628695 17.21156929563435 17.789836212369107 18.93076205501958 19.77405445813609 19.435564974792165 17.991970939504228 16.23776144223016 15.359838674505797 15.188238623059952 15.05269706928118 14.890449666865237 13.974852145179627 14.61125697676183 15.749435250161952 17.140993109069935 18.875537995487228 19.852760906988788 19.5685960860853 18.551705688720553 17.52584111197567 17.35055498326233 17.664096994351784 17.790040785481015 17.61420889539839 18.037153773628766 19.57094413267091 20.9728181213752 21.386857582681785 20.484177899758183 18.813535261489243 17.5278676717538 17.04248885796882 17.847196467065046 19.25884836278249 19.981069399732622 19.872941172624582 19.834816040797165 19.974447685746433 19.63324434515719 18.68956617251154 17.796904137815595 17.41899469568679 17.186555348213755 16.89788783878777 16.686374749827266 16.61204558088568 16.311913095779055 16.080894127222265 16.109659294340723 16.119735538613977 15.939088846114242 15.620369587368272 15.18719180234746 15.402180150506359 16.48692812110499 17.438104522249766 17.460215511063346 17.16128848475483 17.305819561594674 18.092791212780774 18.389775213703007 17.599734549802687 16.617683719313927 16.522989609177035 17.23018652088696 18.231091784062077 19.27850546624337 19.816740588521263 19.50144663756818 18.95446696130669 18.558128679785312 18.028575605669374 17.26258518853035 17.19936170947917 18.00361338322586 18.797656033627394 19.153647140629463 18.698671102104623 17.416889543668837 16.55820045397083 17.119281355590395 18.293512653515776 18.620144071044358 18.04115404682956 17.372658587859444 16.427851309607316 15.880236578812536 16.196915694808812 16.561911741074198 16.46673803998752 16.368628596190888 17.060432007247616 18.402121939596288 19.66597755826004 20.616671645541338 20.981863800622442 20.145231958743334 18.51080987454772 17.0888870620133 16.31835126738765 16.51093439094433 16.916142064487016 17.072598355356224 17.381749354306436 18.061489866534373 18.698914453478423 19.025639734472282 19.09523890871716 18.998055177481238 19.131933164462048 19.253926776601133 19.312663906467282 19.07413174837073 18.484837609330018 17.668613338417526 17.078493230614573 16.908700015018905 17.18586818247763 17.41439824755625 16.845157324617702 16.23213488916226 16.40699767497276 16.882716553901517 17.87846930538765 19.035930224791425 19.1879748195073 18.746089128133153 18.567369061922573 18.56926262572166 18.645448119773114 18.858542124081247 19.397975992557996 20.189706582878035 20.84664169991899 20.319516629567296 18.752356973859992 17.053188118319888 16.611071987305913 17.57339341175665 18.676661758080662 18.875902878040552 18.696888263831784 18.899061109491093 19.1537898903197 19.075178747581347 18.864961884593598 18.436481079449834 17.95141205035457 17.446090525955842 16.737690382389417 16.16319230175599 16.258945659785 16.80078513392374 17.728867973762984 18.738652310609286 18.99217502786135 18.40219929223221 17.993146554548215 18.434619948675735 19.05142486791354 19.204758184321445 18.780256508485117 17.84816322408866 17.07635466351926 17.119359464035607 17.558062768745806 18.118332578768896 18.789029724787422 19.351840090061685 19.71833294601997 19.79271082011637 19.784182349644457 19.643538512672315 19.173177597962358 18.135417607062053 17.126846407590566 16.868745523653537 16.861637146697543 16.93545930265089 17.285190988426056 17.906045118282304 18.29282438244284 17.975798737913617 17.50329900582735 17.774716678658113 18.334139629600585 17.92958392987469 16.83649640694892 16.092339501235777 15.970060477720983 16.552825292151386 17.42433090944869 17.729830334983145 17.658231502673786 17.660127828093643 17.73981665517681 18.133444290481574 18.576021013709152 18.503665590161567 18.01681832577845 17.674343858341306 18.153309302844026 19.14202260925107 19.724525646757442 19.09137657398242 17.485261835165247 15.668998533380337 14.615874156290175 14.388196556291728 14.35629399788162 14.024237208335654 14.228334158196603 14.484419731277686 15.554748561423473 17.23531459747957 19.16126889095959 20.162057978178943 20.006438877609668 19.119853553650717 17.981580185312364 17.519283458730555 17.658359345085895 17.672909879993092 17.299560151227567 17.40020979740898 18.633545999902832 20.116990247929248 20.97088629632524 20.52760743687294 18.99186931541527 17.457679728271632 16.787975772650565 17.370308134338128 18.568015870858517 19.318412817973623 19.454581840829185 19.690627328951603 20.111983708348493 20.183284117079477 19.532815159599235 18.388075861723898 17.370851387415048 16.70604336376439 16.384065122995374 16.250023469702832 16.12535021237481 15.813005076234328 15.8666623008447 16.25119854680212 16.362684196071633 16.039341021692003 15.234269721629964 14.346044603222351 14.495874623966412 15.703116005745962 16.766957822286233 17.106266105343472 17.205562106034456 17.605381580468098 18.500329718798127 18.82788268959747 18.036829177819055 17.09808606676253 17.03763880783406 17.668305359280406 18.334692756232105 18.82172112848678 18.554430994896194 17.6719680068987 17.009776018015803 17.09757275573167 17.488971433281588 17.45013937577875 17.606085492919807 18.40297584316022 19.19274816631819 19.721734035505033 19.402491180988232 18.143023607496584 16.96532042934589 16.982278486512797 17.909500016425543 18.428151956765493 18.3151949437045 18.148303829879485 17.549949841264738 16.997262285101485 17.070563062956253 17.231826995418444 17.072934192706917 16.679829523372327 16.780695633478192 17.622326119550102 18.714529648850608 19.79332402149673 20.291938708039144 19.629465239053424 18.143696932920594 16.691835227466918 15.998592214325909 16.42058975430052 17.29770681667343 18.015855214126688 18.589109988651053 19.09369915042335 19.455249890599198 19.61551538630896 19.40114274331312 18.78478813432882 18.610490285151574 18.76450914706616 19.08142258799866 19.126968476870054 18.65934914318585 17.936846517467732 17.612775846882386 17.66390642021671 18.138322750582912 18.42603712899391 17.619810494882454 16.65311413706804 16.68437673407378 17.129018206140923 18.081567664082332 19.045706782767088 19.06165205079015 18.780554337968585 18.79845709064903 18.880749765022962 18.711950234524572 18.307515860262253 18.308993759347587 18.938351895413202 19.626431953348327 19.0293526201124 17.477607939536526 16.17513348000401 16.332424186622326 17.666316344983787 18.817059221343747 18.82227347691933 18.434397585181447 18.53258070034567 18.57313116863579 18.244149080612257 18.219648529450872 18.33689169632401 17.99084959475876 17.241570008263082 16.376152579041236 15.758065702913864 15.79820909810123 16.2677458154812 17.30477242917285 18.536975623000682 19.040975643381685 18.540979952576247 18.051685060423274 18.397741623771797 19.065607508576335 19.324697557150486 18.92646297083808 17.980385472758076 17.19062645464039 17.0943171711174 17.107087445643977 17.141647914737028 17.413859468627816 17.962050835209734 18.663711263378616 19.294951320019393 19.67789852096868 19.730968562802822 19.476501166625578 18.689700771864267 17.96102105382248 18.035241238747364 18.44386314110233 18.597006696940063 18.57229715587042 18.591030420918596 18.54947250242236 18.25670881340682 18.083813915241127 18.505605766741613 19.07509281642323 18.932252105156845 17.997863570621256 16.928702032542386 16.162624382981477 16.307866901423065 17.022528740278855 17.28080425874537 17.34361293438953 17.535004524560964 17.887626056097186 18.613808351036937 19.338583420141468 19.313151435364368 18.643380073587764 18.163421535870864 18.477287579050067 19.144613680293638 19.36726693977596 18.68879798273786 17.413252720445147 15.954490067383862 14.919902000335027 14.737913410873546 14.912761489970062 14.556324028574704 15.37667944578658 15.129366927435326 15.729483497842889 17.115650206750672 18.71348135623005 19.54027846228451 19.539536747874873 18.89793193639328 17.72566716435744 16.969446106425764 17.094068196600634 17.391669331803104 17.153765817994 16.897631704632232 17.404216556236673 18.408208372992128 19.316212350554782 19.29204584955477 18.16066729609114 16.608612905623183 15.764993163744007 16.019519383833263 17.050417334369808 18.08167090404712 18.664051708376654 19.07906401301313 19.49072895639269 19.6719332642893 19.357863758447774 18.37795641070712 17.14547600024161 16.375107654002463 16.260096138429954 16.216469521966324 15.818844174927873 15.394830586815438 15.665485480988213 16.19462203332974 16.22720634366433 15.77958982824311 14.90109242370479 14.097410212345187 14.386258027247186 15.520239650554947 16.505813714081658 17.154670876001628 17.550123913365304 17.864013036572807 18.58340146145072 19.022878269052736 18.497336283218317 17.77543181861764 17.94544529956974 18.616554968534444 18.7958939195638 18.335337581903307 17.15977293632607 15.934900847071273 15.336189523767581 15.913051591829143 17.201772586334403 18.036968074617423 18.61253269326816 19.12204331795509 19.25809188106403 19.36372798895647 19.085684359020668 18.15219538432136 17.155148419580627 17.103715947926982 18.06612772136196 18.856790132571636 19.079330775086486 19.051334048505673 18.475231786393007 17.634502028739128 17.31071220719775 17.432099229218636 17.561983741776604 17.209949904229354 16.890544214648497 17.278027749245933 18.143635319999344 19.23538155724224 19.913858539592606 19.553362451477636 18.23883676629358 16.754128587018247 16.15935271496858 16.778785783356515 17.935175947695132 18.82396222950848 19.191772407415396 19.10891958930827 18.889438680154527 18.869773203403547 18.743558125930253 18.10691104797744 17.72220754596706 17.684633073667257 18.032673273936332 18.412237683119635 18.361850323259297 17.867084648378572 17.42133250351487 17.213089003338972 17.733439847273594 18.28002866284318 17.7367689277456 16.983629306025353 17.12522233677586 17.42758623266407 18.038179560173123 18.77400340509359 18.986161074208315 19.0954558169248 19.132034254903353 18.869587741471985 18.148967288548974 17.17764539090465 16.89341384564022 17.546954131606654 18.401197007835496 18.09956222984547 16.91033718399969 16.116236984416993 16.669483271686524 17.97211554312323 18.781370766459972 18.44420502570617 17.86050884308718 17.930019673242008 17.931739836640087 17.54135748175613 17.58805261076042 17.85181664765843 17.347162840811553 16.40366386900218 15.646692397431007 15.17300887088035 15.229904582693964 15.644207959029208 16.758649694299216 18.24113808120745 18.98043591851425 18.402081559214317 17.736450656667873 17.98368491974021 18.591251082912677 18.818531704115358 18.559799976533096 17.898004547728647 17.26474976994041 17.078540603728232 16.923976508900324 16.769387440417166 16.853979681582214 17.341420389905586 18.032524895775293 18.756334953303817 19.09241282308624 18.988188982285365 18.91931928354906 18.53043313883423 18.216578338371654 18.773636546453826 19.791448392173535 20.11721137252579 19.54816067237984 18.7407198422907 18.094633382255836 17.7873768065916 18.04537099694558 18.80656818853253 19.400683290796586 19.42094311878574 18.772613876774216 17.774727924545072 16.78027585152644 16.49623428874448 16.786557093362983 16.900225496052 17.131682761363187 17.53693723610367 18.07698862779514 18.750693902431905 19.209354690321288 18.980827894704834 18.377899790648225 18.131616575778725 18.41949338062364 18.665822129531758 18.449168034353026 17.905589445719613 17.400725595721873 16.766557129724212 16.04578894902002 15.9431329949468 16.23679510069752 15.900747708187767 16.426588284149236 15.7927