# vtk DataFile Version 2.0
Really cool data
ASCII
DATASET STRUCTURED_POINTS
DIMENSIONS 200 200 1
ORIGIN 0 0 0
SPACING 1 1 1
POINT_DATA 40000
SCALARS temperature double 1
LOOKUP_TABLE default
18.37662376628617 18.088856089473076 17.764854370407797 17.415492580922272 17.05000070425131 16.683393931944227 16.345272702354297 16.079627262621013 15.932074659466819 15.93186721897812 16.079630989917874 16.3454681609008 16.67460192670276 16.997335370691903 17.243799148281393 17.363204000807645 17.341049484241886 17.20436647464981 17.010763716875605 16.827197277794692 16.709303244739832 16.688532221360486 16.767846733204124 16.92391147173876 17.114765029163426 17.29270916022386 17.419912422977728 17.48051068343084 17.48212034523738 17.444926895810138 17.38544003959517 17.306671729684023 17.20143267569512 17.064880603973787 16.906222524148575 16.752010149846214 16.640136918167556 16.608005652411364 16.679217474015243 16.85306821205745 17.101020244804474 17.372528858704456 17.608620075470046 17.75798251855764 17.789825122037954 17.69995676562741 17.509218568093132 17.255845628381522 16.98558707149927 16.743642052935513 16.56929885523859 16.490656414152 16.51767421207355 16.63656008755467 16.811211606130474 16.994023598968905 17.14177239284519 17.228768968660013 17.251676172544634 17.225520663907997 17.174490607112105 17.12251867912985 17.08767400802521 17.081484144283404 17.11073519553047 17.177796634512035 17.27794083792791 17.3964738129106 17.510238244156493 17.59504777042337 17.63559088452008 17.631926439314054 17.598757078368052 17.55830783319343 17.53151213391185 17.53276236189136 17.570239245441307 17.64919896927317 17.77350174453009 17.94298280172647 18.1488154961922 18.37160382972623 18.58526233379709 18.76535342012645 18.89721496053011 18.9792566164514 19.019546456947964 19.027398369658716 19.004712950428168 18.942746377990886 18.827290416565287 18.649886772037576 18.418451580193263 18.160718291432268 17.917942329077476 17.73175349845386 17.630948161741212 17.624748556299448 17.704219904474577 17.848110447843737 18.028542642782522 18.21557644836594 18.38211111453881 18.508566171221823 18.58393197029359 18.601675260843283 18.554842345611807 18.437146381925352 18.251165830307187 18.016141513915624 17.766119056795137 17.537347026123165 17.354043554362715 17.22355047805665 17.1436613269529 17.11471320293842 17.14615983880794 17.253001980526527 17.44511227409559 17.71600593524888 18.03664236347622 18.357498879674704 18.619939546152374 18.774645228266962 18.80016127732514 18.71176791229815 18.554473542192916 18.383416085124214 18.242837693940093 18.15400888379195 18.114511411617592 18.10438098161446 18.09419142381278 18.053550112378762 17.959868531868384 17.80553450116759 17.600442350023165 17.368594120660102 17.14032844780109 16.94320112205219 16.794727798064965 16.699920242090027 16.655101539384646 16.656301722881985 16.70721999510894 16.82098296207181 17.01305671501837 17.288278719047184 17.629512950016405 17.995589244812876 18.3312734852566 18.584609400283416 18.722020369872414 18.733417800300032 18.6273763341835 18.42333442085644 18.14749400881995 17.832808886291968 17.51814929047921 17.24256299944384 17.036082892527954 16.91285798135274 16.8711302538086 16.89901930258704 16.980754166779796 17.099026257356403 17.234020629183476 17.363281098479355 17.465681381987967 17.528617278569236 17.55366420874048 17.55552068311691 17.553056437342825 17.55726682563507 17.563990573156644 17.556169866782877 17.513486840948183 17.422453521833265 17.281254035667942 17.098847454461428 16.891875213805072 16.682586913878122 16.497692931827032 16.365905335554732 16.313259243792622 16.35805553266215 16.5078169857013 16.758530186677675 17.09457476981082 17.488433980735554 17.901640146339346 18.289649999493708 18.611533946861968 18.84117362652496 18.973488567890918 19.020845399743845 19.00134789853489 18.926989396194013 18.799625520629764 18.616097839386658 17.955081925876772 17.71489687578731 17.45940022195327 17.192122221748765 16.913506407767922 16.629500784951013 16.361855451262084 16.14955881274382 16.037251063910748 16.057282566135427 16.216159336892662 16.490517685758967 16.83074324676242 17.169780744426504 17.437851127090877 17.582525804264353 17.587081737979577 17.47670455116481 17.30797854221147 17.1474289037443 17.050012190151378 17.0452270049417 17.132391146927954 17.28363827505315 17.45346520200541 17.5935946779207 17.669487780074874 17.67164582126163 17.61488634212653 17.52491641901342 17.420769194715866 17.305607615477484 17.17191191489554 17.015526941827357 16.84716997614475 16.693979342869746 16.591741706691753 16.57299550237924 16.65582559820963 16.83627971154291 17.086348905136063 17.35861443512567 17.596793106219028 17.7492827675817 17.781878490317 17.686130817592854 17.480827528422516 17.206296764864593 16.914415292987474 16.658578162628782 16.48546734600236 16.42718935729586 16.49299377005779 16.663938456000526 16.895821476292024 17.13188416777024 17.32042961931502 17.42950841473828 17.453127113644452 17.408134104490127 17.32466303727084 17.234764124280506 17.163793690974913 17.127101335841722 17.13111864841391 17.17547429738793 17.253435252369577 17.3510710995257 17.44795583789412 17.521709374206196 17.555713447407573 17.54627917662346 17.504851062279407 17.45352007142799 17.416624615218097 17.4138810978643 17.458654251944452 17.56008092671012 17.72428448820354 17.951111514876242 18.227758304988278 18.525009702153717 18.801479301380283 19.016033644957385 19.142573313649763 19.179038049450348 19.145218567605706 19.070008934848584 18.975037137488098 18.86439302124859 18.726807072911868 18.54867056713594 18.329306991425998 18.088824979607427 17.86390108667227 17.694246498248607 17.607770226281733 17.61231553074744 17.696428669623245 17.835567571843466 17.99888935921613 18.155128665230066 18.278520624992755 18.35385382149211 18.377103472845402 18.35019025087951 18.274427459178842 18.149817690599843 17.981861735583184 17.78890271124044 17.600890534087476 17.44796969887651 17.347233832048357 17.29840189606388 17.291669576109353 17.320851814535658 17.391347962579715 17.51742818175542 17.71108018168145 17.969080288677556 18.265051649290115 18.551130240695237 18.770556536808314 18.877757560320532 18.857323122708575 18.73149097861545 18.550891231782362 18.373365593502328 18.242722267501897 18.177167885686305 18.16881150755072 18.18973792574007 18.20089274616353 18.16316012491717 18.04977255584418 17.856065435412503 17.601676329287667 17.3237736900049 17.0645631553424 16.85839429215629 16.72310093235892 16.658407148697943 16.65179839468314 16.689125967231345 16.764500917431395 16.88368143415057 17.05830240384361 17.293799159474364 17.5783381784989 17.88017224165425 18.15601483190251 18.365950690088056 18.485817828275973 18.510005568033467 18.445345044250317 18.30348563973303 18.098568431592863 17.850207024637374 17.58593938615018 17.338026075708633 17.13541124343889 16.996490858527466 16.927340134101215 16.924748609249505 16.979570738543565 17.077250860334114 17.196855231742745 17.312551173538107 17.399807040060647 17.444364717124998 17.44859172563347 17.429887365334494 17.410319853600786 17.403189422686953 17.4053597024409 17.40028457369896 17.36854242534397 17.29778390690216 17.18640957971246 17.041674006144504 16.876741669969455 16.70964317337794 16.563016916016615 16.46189612900284 16.429104194857672 16.480723642060287 16.623887436744496 16.856359216651875 17.165711067463235 17.52742407207166 17.90427567244971 18.2506853744456 18.523337965164288 18.69438580155997 18.75972241026705 18.736391702779226 18.65028901321975 18.52242476067414 18.362619803784074 18.1728954841371 17.511440966320947 17.34935230334028 17.194553633466676 17.039785859582764 16.87317247654177 16.688762468624322 16.498937429983382 16.33774421930099 16.250352280730812 16.27469275764415 16.426013353089623 16.690253068970257 17.025333500916275 17.36846260736946 17.650287165177925 17.815454970420095 17.842613979842255 17.752979235412223 17.601692922885494 17.456437651902693 17.37397818694514 17.383662992455815 17.481457390412825 17.63408560506943 17.791285333668746 17.90304718181209 17.93678161111352 17.887530947530887 17.775430291373596 17.630891974978077 17.47662334134111 17.31871755324961 17.15212521124397 16.974430405421444 16.79650238618956 16.643099567269935 16.544892726540162 16.527848103219156 16.604740151977325 16.770433907058262 17.00092990140207 17.25618993508731 17.486900703736836 17.644689600863188 17.69395830717078 17.621887541292907 17.442564935872824 17.19329883091486 16.925314463482504 16.69326670505162 16.545881380697914 16.516770176185386 16.615122776813898 16.820067269697805 17.08408741842556 17.34663814298262 17.552676571996173 17.668118095178908 17.686688962199323 17.627163571292527 17.523470423672144 17.412016086072242 17.32110372420802 17.26606590985177 17.250548947162656 17.27098358280216 17.320150410070045 17.387678276004927 17.45872620307547 17.514412754102764 17.536712153289262 17.51657990720274 17.460155299244985 17.388155310033948 17.32853950277267 17.307649840933873 17.345327986044204 17.454882953389617 17.643828199618763 17.910769544583932 18.238494702081823 18.589152230227114 18.908671551427258 19.1422017358976 19.254272007435212 19.242822285506787 19.138487090799796 18.988415900656364 18.83313818827794 18.68968429606116 18.550450293847746 18.39711088110301 18.219495811828903 18.027301509528822 17.84833743550824 17.71587537620048 17.653730752070107 17.667513566816762 17.744845206159987 17.86125938610391 17.98712122012292 18.09390394343394 18.160335564336627 18.177209188464765 18.147402368909983 18.079920197898204 17.982593348444993 17.860419564785303 17.721187847542325 17.581857215390954 17.467232601933862 17.39954338401941 17.386757579253317 17.41969013388578 17.480922238744963 17.558828277607304 17.656285642949335 17.788191650481163 17.96957974025491 18.201126549065854 18.459777136033402 18.700270723678017 18.869060171367018 18.925884746305776 18.8626264944089 18.708550646705152 18.518097989068536 18.34819488118274 18.23787384379375 18.19891056686719 18.217070750011615 18.258721246806637 18.279824018388947 18.23776331370881 18.105193200509078 17.880916316062386 17.591828241566507 17.284278011438342 17.0088379367367 16.80497653066688 16.691097214510016 16.662905235534183 16.700205676165503 16.779103926096752 16.883902479587636 17.012477538007527 17.17202681816271 17.367905758111572 17.59300508787625 17.82499417629787 18.033528592033058 18.192623193110315 18.28963759541843 18.325025396806396 18.30464012013505 18.23240199294866 18.109851574981352 17.94197817969474 17.74280824982925 17.535003047864944 17.34372177418304 17.189894267463988 17.0872426902525 17.04260971330571 17.05605462070593 17.11892883707416 17.212183605164824 17.30874275787687 17.38131161302983 17.412764240145027 17.403329125711632 17.369296265517256 17.33263405223278 17.30751446903121 17.292850747261713 17.275597233642316 17.240938275881327 17.18082354143312 17.09574117207232 16.99169777031786 16.87766221012708 16.765900412107623 16.672949821487347 16.617935862362646 16.618201260601797 16.685371403142753 16.82415115347535 17.032662649035327 17.301394189375277 17.609953595141935 17.924682865493153 18.20191653642953 18.398951412170312 18.488835610821134 18.470445723490787 18.366778055732993 18.212081546906397 18.036412668532574 17.8572932411018 17.68145208110514 17.104940805888802 17.036925675712908 16.998981122508063 16.97140742416006 16.92787674168483 16.848638728558704 16.735667714349464 16.6181473821227 16.542786453923945 16.55456543690767 16.6789578778621 16.91258082990243 17.222313369475923 17.5511183573759 17.831188000269236 18.004342160102883 18.043533754070427 17.964555738681884 17.820468115483934 17.6809139148381 17.606280320903693 17.627550010777327 17.738312614370024 17.89994684517518 18.056823839247336 18.155978234098654 18.164730454979946 18.079859350302375 17.924041471225433 17.730957535658074 17.527742923760254 17.325881858797516 17.125304468097788 16.926234354273234 16.738505563341565 16.582126231905324 16.480600702074565 16.452710672768312 16.507025355820304 16.63966789983291 16.833819849511592 17.060205220134474 17.279673534063665 17.44967271947648 17.53464577297808 17.517020033346668 17.40346128529866 17.223197083252806 17.020184744505205 16.843637263150896 16.73918457207594 16.73954601299195 16.8545422335869 17.064768747127978 17.32477336727907 17.576781688008282 17.769193991233493 17.87152881077593 17.88043229452612 17.816202551139448 17.71263325989194 17.60440697253233 17.516615801157002 17.46016654800495 17.434168289871348 17.43261636828674 17.450196597211875 17.48298960569805 17.524196211409432 17.55988575847409 17.57082213735797 17.54157846733605 17.471133853028196 17.376894061536536 17.28917686319505 17.240646642100433 17.25792958028494 17.358800506734735 17.552143774741 17.83537397471568 18.18784430153753 18.565609047490575 18.90576991028095 19.143676789436675 19.236872525626165 19.183185017011457 19.021738053158536 18.81462220657924 18.618514566848997 18.46209794233571 18.341475774755835 18.23398890116823 18.119526138771118 17.995516229606075 17.878062783792394 17.791376004993012 17.754022630524904 17.770264033708266 17.829369215121933 17.910275054665785 17.987700346936087 18.03821681713336 18.0463116242852 18.008803628140935 17.934281235011408 17.83678681687231 17.72843575800734 17.61749082783687 17.513104343473 17.430485424304777 17.388974985328886 17.4023644702325 17.469050266519236 17.57110711225297 17.684519546853924 17.79379622941635 17.90083233904551 18.022228001171477 18.17667003576273 18.369199600548367 18.580741703825435 18.769583929040664 18.88643780455328 18.89713351375461 18.800879745819575 18.632778054749753 18.44844436695518 18.300179122689613 18.218489286118817 18.206319655217484 18.243223086848154 18.29290000506006 18.311519514135114 18.25842615931192 18.10920217268942 17.866235473369287 17.56059009547773 17.243163748435173 16.96883887138474 16.780103358471504 16.69587607197905 16.7089554543064 16.792728627031792 16.914483223092162 17.049405101959184 17.188162300390076 17.334065348940666 17.492417030159608 17.660090553844295 17.822918146838706 17.962346745858113 18.065784037394078 18.132344477980237 18.16951648803414 18.183872720142656 18.17391432767146 18.130980350162215 18.047001466835788 17.9224228621258 17.768498995965157 17.603736757317606 17.448681464493056 17.322549533693326 17.241244172103208 17.214208713997984 17.239814616033268 17.302599268529775 17.376174726360833 17.432245459598875 17.451880993446107 17.43297517544404 17.38904149180751 17.33929893987437 17.29624692269054 17.25949696571524 17.219830136190016 17.168805620320132 17.10525703382149 17.03448303788133 16.963482081665372 16.898247831736207 16.845180361266678 16.813407098645406 16.814116154268955 16.85697746604877 16.94715279462505 17.085240109299466 17.268499894797213 17.489799564390086 17.733258367533708 17.97020923326139 18.16127240873353 18.267275831643914 18.264926935850205 18.157881733774378 17.975398103328185 17.759005266149092 17.546053103129367 17.360220134986687 17.21214521481987 16.79587150796788 16.818113335081453 16.89037838961916 16.98177405385359 17.05217191121886 17.068252036012606 17.02162980467653 16.936587510960813 16.861180758826247 16.846986058342345 16.929038470917124 17.114114202548585 17.378236266104953 17.671353368689772 17.92916706053329 18.092458557809888 18.129228031354426 18.049387940073238 17.90292538801674 17.760866639537408 17.687614916155628 17.71706165076232 17.842036868981694 18.019874914405644 18.189996233915988 18.295610302268752 18.30168807332819 18.203495893012683 18.022999801236434 17.79510663178739 17.551238975563102 17.30965444530229 17.07695094035326 16.856826578699632 16.657762554988924 16.494177562248545 16.382011484115164 16.333495220183988 16.354569805586728 16.44457086777585 16.595624239102786 16.790589561814105 17.001626268585408 17.193089396635525 17.330273477619023 17.390747644178237 17.372052192684027 17.291811231949154 17.181870244313753 17.08089647651095 17.027270362286025 17.050574179741165 17.161435941896745 17.34460753199721 17.56167285266756 17.76430900935426 17.91163936031712 17.982931445736234 17.980812740530194 17.92583875464069 17.846409116086022 17.76822431345855 17.706646427659248 17.664497939257508 17.636116721911403 17.61526958464799 17.601510906917525 17.599773530668735 17.612745232564038 17.63220591624906 17.63800150871337 17.6079255438805 17.53236433106447 17.42306400996193 17.310168641447152 17.230827097409914 17.21773989020496 17.293406523508505 17.468940972974433 17.74195856534283 18.090662891489266 18.468529416141042 18.80824245221511 19.039432590018457 19.11482310661314 19.03139755696136 18.833412640375336 18.593326388620525 18.379885264348268 18.2309275205409 18.145365164997813 18.096107252546524 18.052900493477235 18.00025705384645 17.941887188834375 17.893015151836973 17.868381756716328 17.873606977359515 17.902892748264524 17.941474795339133 17.970176628901616 17.970987814217455 17.933167744470076 17.85760138203797 17.756049032362082 17.644888858457342 17.538094342159333 17.445441342977826 17.3766003051298 17.345047919957587 17.365280205637077 17.443623188603926 17.57015913957496 17.719774462070685 17.863551531045147 17.98361208164116 18.081808167821354 18.176828701479998 18.291180931027974 18.434661482138093 18.593004891906773 18.729111859463124 18.798724479003024 18.77367952326518 18.65924376828962 18.4939416675732 18.331421346677192 18.216188803708427 18.16785640309172 18.17972315887321 18.226364934771944 18.27210528433869 18.2779254776651 18.209574054932226 18.048140955911673 17.79926003016079 17.49514289579401 17.186942992465646 16.930041241475614 16.767782349068746 16.71925121970386 16.77521707238692 16.904024405864945 17.06561223358518 17.227566022294546 17.374902203190455 17.508359467089104 17.63370620334437 17.75102931064455 17.852237779615002 17.927702490287274 17.975446046090646 18.00454286728799 18.029424154238864 18.059371890848713 18.091327784522736 18.11119234119612 18.102035081022212 18.053041202002035 17.96396592290971 17.844503388034163 17.7114411271679 17.585809859469176 17.489292747718544 17.43828440715387 17.436820559410553 17.47285939633824 17.521799067922757 17.55661385815269 17.55948011643489 17.528470971825055 17.47533987039826 17.41561909332605 17.357765265810162 17.299425241145393 17.233331908753268 17.156943448775234 17.077022702980027 17.005951428777134 16.95452777559965 16.928174111896272 16.928645801420263 16.957495389619083 17.01683612691923 17.10719535393156 17.225880149417684 17.368123593406875 17.529134398661725 17.70317033988635 17.8785202729894 18.032369709180305 18.13191413572341 18.144709295879856 18.053968109973468 17.869223618408338 17.62464601565729 17.365703014258845 17.133040265652316 16.953309398837153 16.839594329765212 16.633821492595544 16.72460960981459 16.87847600850619 17.057450077979023 17.21145338370084 17.296586974261537 17.29579839582674 17.22861722718998 17.14310321406262 17.094981743154406 17.125966737471657 17.250526277232108 17.452646477289953 17.689944457455304 17.904056955055115 18.037914400272893 18.05705697736565 17.966205389626115 17.81110786048469 17.662208677706317 17.58664075789745 17.621553877457178 17.76087947720984 17.960233797994693 18.155599738048295 18.286244402965124 18.312977779860844 18.226621914647122 18.045287833933664 17.802635099183394 17.533080922030436 17.2614950152017 17.001653252555577 16.76143854360537 16.54873211592326 16.37332505495349 16.2449859737923 16.171172699667864 16.15689913168169 16.205654606063778 16.318263998752524 16.488538826555686 16.698683285271485 16.919471708362178 17.117526206468273 17.26637012964001 17.35462501749065 17.387312308950037 17.381981709980224 17.363873624935316 17.36122928489209 17.398347706174654 17.48601189874754 17.614578992810323 17.756440147488277 17.8783841532873 17.956558707737816 17.98502097862845 17.974255556583515 17.942846510373816 17.908196087560714 17.88031149837812 17.85975480161726 17.839647442181597 17.811351690452966 17.771914799198136 17.728818605433943 17.697200783118777 17.689104907213164 17.701497650216172 17.71315310347889 17.6950512077702 17.628207249443335 17.516684359581035 17.387614546240087 17.280041608723437 17.231329192339135 17.268745630461563 17.40686051367633 17.645569813914303 17.964810971833028 18.319212259209547 18.641261970483097 18.858559382820417 18.92081833793459 18.82322124338894 18.611623416126317 18.363963088093193 18.15637931990269 18.032482393049186 17.99213607385644 18.003116971772712 18.02506948930631 18.030298585830472 18.011721857823076 17.978225290822834 17.94421108732592 17.920402488751197 17.909181301060084 17.904140150424777 17.89263008680697 17.860761840763256 17.79986713797331 17.71142564731232 17.60685196819049 17.501852854781763 17.410023981833977 17.34124187974218 17.305122102792776 17.313721473259513 17.377896647783714 17.498488845093867 17.659745534119683 17.831912315716092 17.983271136763403 18.094809254412684 18.168676818605636 18.2254240188025 18.291139929345228 18.380577565527663 18.484989865780992 18.57270380496651 18.604707771039898 18.55785959212748 18.441199531231888 18.29364258311676 18.164034234574576 18.087292765550394 18.071758201351027 18.10203961712095 18.149757021925964 18.18264150434702 18.169576780096182 18.085355792603565 17.917875199833468 17.67539580248861 17.388860896709534 17.106277771386 16.880249386044195 16.752749826378064 16.742283963198 16.838250821026577 17.005621357105856 17.19918796445165 17.38126239597528 17.533338987161514 17.65519402326683 17.75373256495172 17.831523052393678 17.884163401957615 17.907179265620346 17.90496338585242 17.893142927298715 17.89178874541734 17.914416943893283 17.960597289026843 18.016569727756348 18.062314065896665 18.080015918592018 18.059774461075897 18.001737688223024 17.916055252970523 17.821318564967143 17.740268211943942 17.691911107895297 17.68266120022986 17.70214065440358 17.72763481568705 17.735427740402145 17.71233681440443 17.660539132292573 17.59293972919249 17.52230334361662 17.45191834884191 17.375047715080953 17.283695684180508 17.17918400275195 17.075447202909775 16.99271796682517 16.947596502419863 16.947384489192135 16.991199602738497 17.074080697963883 17.189253508261448 17.32779560307932 17.47861060902551 17.6307224370188 17.776020024367206 17.90867724130473 18.020220985249892 18.094239730747592 18.106916387166024 18.036032533253206 17.87412322209387 17.636950145032504 17.36078659616614 17.089858478505803 16.862300776799117 16.703068273441932 16.625262794855594 16.64333970588943 16.771558978413424 16.965260701248845 17.185125676766212 17.377329381747874 17.492808519962434 17.50931557234022 17.44245622283326 17.33849381380954 17.253608045510887 17.231772018345435 17.291232683442754 17.421584194841635 17.588021713416985 17.740383630048175 17.827542944484783 17.816218431345906 17.707641171062562 17.542313240989664 17.387234986732533 17.30954137773189 17.34883117099819 17.50165686836703 17.724694337866445 17.95289330130989 18.122503612377788 18.189459748236843 18.138251905645188 17.980656539001636 17.746473701020737 17.470758198112343 17.183286101004672 16.904307747799763 16.64636037212896 16.418283331142156 16.227592056474226 16.080601384958438 15.982505230742422 15.938933700333134 15.957349498030245 16.045108894400695 16.203502457860175 16.421491529886232 16.674635778266968 16.93143197421044 17.163436872141148 17.35272534834698 17.49334661843541 17.588974923643832 17.65063302543193 17.69473560089486 17.738345242312796 17.791084655400766 17.849115584787103 17.897744804157487 17.92247633385304 17.920369828757618 17.902842632405566 17.88820882160258 17.890205016869597 17.91058934793645 17.93929095282075 17.959986819548515 17.957266085411618 17.923209967940554 17.86232276075719 17.79253481798652 17.73912985227054 17.721614540868682 17.740084432928416 17.771254339854238 17.77932341282573 17.735947485839485 17.636511983064263 17.503037533593876 17.37405066470853 17.289884281252306 17.282196757152946 17.369922704527546 17.557096546213387 17.827938364358083 18.141356046226743 18.433084902648222 18.6317570774295 18.685739637695153 18.587848826325242 18.382673016314627 18.149262241280926 17.966513749116185 17.87996622471979 17.887924422150018 17.951988174319325 18.02214756001528 18.060480053281328 18.052495097839294 18.00501237053596 17.93641275299992 17.866070516574467 17.80683590237952 17.761513856279358 17.723358352016433 17.680519292148755 17.623115132085125 17.54935313508961 17.466682434150258 17.387396899229447 17.323003074656153 17.282581353203593 17.27539776595938 17.31244203416726 17.4021540321409 17.542084221119932 17.713553168479173 17.88517258347808 18.02480385931599 18.11356629734604 18.15404676150043 18.1680772564684 18.184595493799595 18.222847825152613 18.279501652227985 18.328255056869235 18.334753773100307 18.279278290610407 18.172137037698693 18.050059188173655 17.95557286739519 17.914221683228146 17.924778647450577 17.96550003492465 18.007209103603234 18.02268834066831 17.989879667490733 17.89333244708786 17.72789015982428 17.503770508641345 17.249006584103274 17.005952355702433 16.821550160911954 16.7339561426828 16.759926412607392 16.88807745219568 17.082201079419704 17.295030607246307 17.486675680762623 17.637491161465874 17.74772195150839 17.825831471761106 17.876107683928446 17.89559271966088 17.881216727868466 17.839153280089338 17.787472743988737 17.74969033359157 17.744162601048952 17.776469608481005 17.838490999831556 17.91302195594886 17.980404856603894 18.024392761682854 18.036391428029916 18.01811462647669 17.981828099375175 17.946350654168306 17.928389612348553 17.932860116240512 17.948787197145844 17.954912564855086 17.93215726575867 17.874689468662485 17.792154715088827 17.70168284287508 17.61524401344143 17.531469276595928 17.438386390080666 17.325434306503293 17.195516534385842 17.067696476206148 16.968944130619736 16.92186506309244 16.937020094518125 17.012881056892372 17.139950475600475 17.30414308718252 17.488124571620673 17.67279757293341 17.84056593735765 17.97869808249702 18.079485096897415 18.13637886432709 18.139657421663344 18.076755466226913 17.938995583770154 17.730704450234835 17.473739910314954 17.203182346827262 16.956416627276163 16.76281797538737 16.640339191008486 16.598803315759376 16.81385029720439 16.95028436784465 17.14212691325999 17.354124452810108 17.535482346825248 17.63856650983759 17.640714177311846 17.55542402578462 17.42579993299525 17.30471575935081 17.233632730087116 17.23019685193923 17.28667964620416 17.37504449732424 17.454873509098192 17.48436720914772 17.435191130108613 17.30729132395524 17.135286498097198 16.97964751765725 16.90391940287227 16.94822937435269 17.11245158840768 17.35693266229694 17.618550580808613 17.83260844371042 17.950937602166334 17.951287066796077 17.83764902754532 17.6335680326299 17.37175429141893 17.08412923336867 16.79584360533418 16.524282955190277 16.281102517177562 16.074430307516216 15.91023130404391 15.793926330059312 15.732788388574226 15.737103215584437 15.817341266210043 15.977551957005641 16.209244669679887 16.490805679157145 16.793564003696957 17.090303333720225 17.360550164615653 17.590857293737834 17.773210249380384 17.905087233692235 17.99041891665529 18.03759182986696 18.053650290438366 18.039883900963464 17.99480693387585 17.923474559105163 17.84438689131738 17.785749628835894 17.77178805871048 17.808655632721198 17.88005036363081 17.95498484653135 18.001768741620854 18.00015287786912 17.947562751865746 17.859669396100788 17.766120430844776 17.700844414401345 17.687620689457248 17.726604453414108 17.790886731008516 17.83797587917788 17.830942717025806 17.756721322076505 17.631288733247334 17.490877694400417 17.377042436946496 17.324889044199846 17.357835849880306 17.485035587313583 17.696551549169136 17.95760527384102 18.209634382343857 18.384852357685496 18.43217329249437 18.34240273245673 18.1571977562429 17.953310914939422 17.80816587889314 17.765300848280358 17.818748537750306 17.922988140262813 18.01941671229684 18.062858733506655 18.035750615714786 17.94750975174272 17.824317007647277 17.69641892279918 17.58771120317017 17.509579165539048 17.459750256405606 17.426323578365423 17.395514819965168 17.359281624632814 17.318419934215537 17.27990987642217 17.25214486915284 17.242984498063976 17.26123272134504 17.317032879246465 17.417274154425822 17.558008839721605 17.720267856837975 17.873991076787053 17.989167166627407 18.048569835643455 18.05548486608088 18.032194041749577 18.00897749177512 18.007880910750597 18.029473866360107 18.05157301940616 18.043238014935852 17.986638265122124 17.891663353003906 17.791781479963404 17.723657912444104 17.7056960516191 17.730335991756437 17.772401128969605 17.803567670739756 17.80193507686012 17.75390888101184 17.65297611872063 17.500224866436287 17.30713875338538 17.097717990164103 16.9067024674059 16.772682956290364 16.727398252224692 16.784539518005325 16.932753623616097 17.137513601499073 17.353377974060802 17.541783762909027 17.684169419263437 17.78203664382879 17.845166972936152 17.87859012194233 17.87893308927156 17.84155513258224 17.770593717602818 17.682865842141613 17.602964805793935 17.55387181357444 17.549223441566568 17.590363391568378 17.667695248248585 17.764504596274197 17.861915474526022 17.944288297956238 18.00410270945456 18.04430207140438 18.07560744407697 18.10838333840529 18.143166658805036 18.167030596582748 18.16004959817524 18.108324609496037 18.014195127636835 17.895829843156125 17.77599936268513 17.66765534049705 17.566600062928842 17.456929535769365 17.325684917087816 17.176090239528815 17.029946447914927 16.918301543397604 16.867888499648956 16.892160823609615 16.990185558160515 17.150285553600824 17.353763494794837 17.577173339109855 17.794764791628147 17.98240638552308 18.12161274256417 18.201005293644634 18.214542903539268 18.159123738076545 18.034946070915126 17.84913758028887 17.61937482889067 17.37325836732718 17.142102573731584 16.952240717005704 16.81942728715536 16.750028872107357 16.747023259181823 17.099442187269297 17.2257621930366 17.386085556882