# vtk DataFile Version 2.0
Really cool data
ASCII
DATASET STRUCTURED_POINTS
DIMENSIONS 200 200 1
ORIGIN 0 0 0
SPACING 1 1 1
POINT_DATA 40000
SCALARS temperature double 1
LOOKUP_TABLE default
18.020528127014654 17.843449704222678 17.64468666378351 17.432597497706123 17.218412155334946 17.01619934372404 16.84187271394385 16.711073877470227 16.63617725070307 16.623122502506575 16.669066706431742 16.761791634050887 16.88138280682647 17.004041192925172 17.107201531486886 17.174634273996887 17.2000855469014 17.188350782208428 17.153416628137474 17.11420790074012 17.08921623000048 17.09159164998154 17.126051075963996 17.188309110671277 17.266918581148442 17.346704309670088 17.41260441619386 17.45279562031885 17.460417156748893 17.433825805315255 17.37584311930232 17.292672008139846 17.193001098953854 17.08741609147059 16.987850684740973 16.906660858419947 16.85507133021593 16.841122312143348 16.867632436859168 16.930888468738182 17.020668432234487 17.12183077745629 17.217202333888952 17.29106784826808 17.3323675962024 17.33680982376279 17.307441955668907 17.25365334881501 17.188948689377852 17.128044789974705 17.083903782184873 17.06527499103557 17.075216728935242 17.11090123505982 17.1647456181137 17.2265798741679 17.286260726915224 17.33600584967645 17.371840953662577 17.39388311527393 17.405578144092182 17.412294763287996 17.419756128051176 17.432682603429317 17.45383978195583 17.483549068400617 17.51967193531993 17.55808256528687 17.59361608255412 17.62137444963063 17.638121867368568 17.643398077389957 17.640005013182375 17.63369197653663 17.63210588094612 17.64327827948273 17.67401342700022 17.728515991925 17.80750402481933 17.90794834811381 18.023482212992473 18.14541700045238 18.264166414018757 18.37075132089873 18.458000855273276 18.521149331249 18.557755898501643 18.567157527750833 18.549862417588166 18.50728165363211 18.441967792828805 18.358193604894975 18.26244698523094 18.16338705498653 18.071023265388064 17.99522684946147 17.94397994860152 17.92187317794929 17.92925291684083 17.962179164920194 18.013109016598566 18.07206494635722 18.128012631905825 18.170235043930084 18.189589819323366 18.179607569280005 18.13738196386008 18.064126951934355 17.965210735593335 17.84952276021788 17.728225485581184 17.613196914028155 17.515607948433104 17.44497326960669 17.408703481770377 17.41186909112302 17.456789536800997 17.54227191803561 17.662726713821023 17.807728565750203 17.96263515789687 18.11054930791231 18.235335736393345 18.324857122785296 18.373358055434494 18.38214797478227 18.3583384887026 18.312104798078323 18.253441510346132 18.18946885942896 18.12303368829708 18.05283433262253 17.974814272720014 17.884266728628887 17.778001635457365 17.656003282052264 17.522195079757903 17.38418455156948 17.25214126957536 17.137193971285587 17.049835889950916 16.998742356884353 16.9901528272655 17.02766613982245 17.112108556556574 17.241180432128584 17.408858635975367 17.60487057893391 17.814742551666225 18.02081838966786 18.204279467642248 18.347769737305153 18.43797110778949 18.467503959559725 18.43578864498619 18.348826093766856 18.21808455848548 18.05876979271542 17.887763140633613 17.72150851803906 17.574130851102538 17.456035808621863 17.373141108611396 17.326749091998934 17.313958770696814 17.328482924885584 17.36176227374858 17.404282628445817 17.44694937008895 17.482280792293974 17.50513912033261 17.51280920443892 17.504457863091506 17.48025780971838 17.440597737431748 17.38574238556866 17.316085320981934 17.232871817761264 17.139083028122357 17.04012285480581 16.94401711967726 16.860968713382338 16.802270398000413 16.778734659316463 16.798931707946732 16.867595275630215 16.984532056292437 17.144261305162356 17.336460479909476 17.547149903085142 17.760433328762332 17.96051235880496 18.133609852237193 18.26940933163802 18.36170361773486 18.40816561121787 18.40943821808187 18.3679549098348 18.28693750470064 18.16987065476922 17.832798141439728 17.676063421680634 17.5062444556377 17.328668109456967 17.151051389606604 16.984021590742607 16.8406600377942 16.734787897182823 16.678150647403914 16.67717927171974 16.730360914230207 16.827245884489326 16.949716256291108 17.07546840778799 17.18293538993713 17.256332583534483 17.2893501310833 17.28633630167239 17.260555159019646 17.230023909554884 17.21220630744627 17.219170152388422 17.254596541719913 17.313360237485963 17.383545600999803 17.450026884303245 17.498366941276057 17.517877290602037 17.503165974008567 17.45415714082035 17.375108922836674 17.273357401658416 17.15832565129831 17.040912243119585 16.93297829424483 16.846507689812515 16.792182723567624 16.77748560418662 16.804802649395945 16.87018968940407 16.96336796336546 17.06919047485954 17.17037180257998 17.25087210232857 17.29911032305319 17.310221653485062 17.286842018987453 17.23829055059208 17.17839674374969 17.122487158038734 17.084179243033436 17.072645904937847 17.090929729140008 17.135688410527937 17.198432644253742 17.26792295461468 17.33304992538401 17.385384763981115 17.42073373178498 17.439405285021323 17.445335068123107 17.444525147383587 17.443336285780468 17.447048469457837 17.45889253724926 17.47958484757952 17.5073326615199 17.538292483648753 17.567471952970728 17.58999858337904 17.602539830685263 17.604527735491033 17.598815697273903 17.591519104330047 17.591021752148396 17.606363388811097 17.645368050518407 17.712901545716385 17.80959725837957 17.93131251214476 18.069483169240776 18.2123991483801 18.347204031964832 18.46217141046106 18.548647098005162 18.602097185851278 18.622006298052657 18.610822327322566 18.572527213745317 18.5115198916617 18.43225786075222 18.339641950954743 18.23969764989775 18.139939291854407 18.048977725295753 17.975332206852105 17.925806967596717 17.903994429829194 17.90940381220056 17.93745948627513 17.980311901021977 18.02818291005776 18.070889026274365 18.099243199196962 18.106170156740156 18.08749885809414 18.04244648497186 17.97376791606314 17.88747925607385 17.792079465461565 17.69734246507932 17.61296239310435 17.54744517973692 17.507524515500474 17.49807073629233 17.522149782398593 17.5808023383494 17.67234456194238 17.79142539057131 17.928448842131704 18.070031768841794 18.200828386915752 18.30644393060592 18.376575032055328 18.407263160873377 18.401388248957318 18.36717484292272 18.315236793186365 18.255204004239637 18.193049106375522 18.129887100037305 18.06246091304439 17.98499298115745 17.891737464578178 17.77945541969915 17.64912957853726 17.50648708779697 17.361249306601668 17.225396465077857 17.111013988076696 17.02837194898806 16.984731211149267 16.984021536832667 17.02715017132843 17.112464449544213 17.235936264460136 17.390939173733877 17.56787544028351 17.7541446685809 17.93487659373893 18.09451155992222 18.218902618257314 18.297367199942627 18.32415185569014 18.299028741438285 18.227040905274876 18.117599008341326 17.983166367836244 17.83772256640609 17.695159367538167 17.567767414847538 17.464983114555956 17.392538218826875 17.352089854136068 17.341345123652168 17.354659896646947 17.384066540843815 17.420623886316797 17.45587091280557 17.483059592006914 17.497838770049942 17.49821829754965 17.483916672486743 17.455449616836926 17.413407393539064 17.35824313126205 17.29062846754899 17.21217452878072 17.12618550042048 17.03813366030273 16.955660609504648 16.88804373624692 16.845180134957072 16.83623116946339 16.86814396479465 16.944308870156352 17.063606234680208 17.22004161071934 17.403085778185794 17.598740832548025 17.791239476971267 17.96513921396947 18.107419155525836 18.209100803469575 18.265984532916388 18.27834458200721 18.24976819883105 18.185595627639703 18.091485889453647 17.97249251708024 17.640077690513884 17.512215052282997 17.379605126878648 17.244116171205572 17.10955228381968 16.982739150620098 16.873631577952416 16.794037831728456 16.755020495147786 16.763612568896942 16.81991039561641 16.91565407411957 17.035029817085768 17.15774881030343 17.263699329469077 17.337883006113756 17.374142159572603 17.376471691554542 17.35743405215751 17.334129578338718 17.322978949724813 17.334944107614675 17.372613770687977 17.429901015805918 17.494211532849878 17.550170753546052 17.583610566185982 17.58462161352797 17.548994533749983 17.478061942049727 17.377509486448144 17.255922342376447 17.123634840028878 16.992020186986842 16.87296075970555 16.77809008516937 16.71754608788472 16.698308832411783 16.722526602788204 16.786402622685006 16.880152299601193 16.989274248466778 17.097001546095395 17.18743748502019 17.248651158841863 17.274988075753424 17.268043733863177 17.236083957780227 17.19206453543132 17.15070629712159 17.125269939272833 17.124737628516296 17.15204107960894 17.203762524199227 17.271378632699935 17.34368872076662 17.409713418232524 17.461224948584405 17.494244342388114 17.509241144650737 17.510216471133635 17.50315217460481 17.494369907740108 17.48919547299101 17.4910907228593 17.5012351768614 17.518486121365484 17.53969542737139 17.560419209581415 17.576028356385216 17.583089967552326 17.58071090830993 17.57143298728728 17.56132942686833 17.559165279242798 17.574754663482075 17.616861632179198 17.69109101232805 17.79821636836583 17.933337180098857 18.086154916548995 18.242470042690385 18.386700684280477 18.504864208560537 18.587201606444168 18.62964136531861 18.63366941094684 18.604777144386553 18.550221888631697 18.477061404480004 18.39118897525081 18.29752276160364 18.200903559974034 18.106942789368997 18.022174079585035 17.953293295822103 17.905763923234346 17.882366877131187 17.882275227287643 17.90099022732872 17.931137953031026 17.963849098628028 17.990318910405893 18.003182749439844 17.997492810194537 17.971250742828754 17.92554963162637 17.8643740647034 17.794052253334943 17.722352341596352 17.657326101567882 17.606170734558724 17.574455832290436 17.565929463656264 17.582805312360513 17.626129655331322 17.695755616375603 17.78970639453133 17.9031715151409 18.027780381368544 18.151871706820234 18.262127973469774 18.34630817200749 18.39620297728557 18.409682693974446 18.390972067357815 18.348963718036966 18.294153663663714 18.23528995361663 18.17686733407266 18.11821844107207 18.05436335639042 17.97823004867249 17.883504899175122 17.76726140145939 17.63162705564226 17.484040950959574 17.336064414202998 17.201134039127183 17.091958003744672 17.01833219131623 16.985945802378698 16.996326967074257 17.047623551579953 17.135633264514073 17.254527145583257 17.397028950228087 17.554234839239214 17.715535095384023 17.869071530713363 18.002860097363612 18.1063265761304 18.171777275304947 18.19537055017888 18.1774015319814 18.12198211463204 18.036337024601327 17.92991419162505 17.81340706775793 17.697714706231285 17.592867608076308 17.50699498587375 17.44545073478848 17.410228121640905 17.399785078123283 17.409376509501794 17.43192440799452 17.45932676930285 17.483935809617094 17.499811762318547 17.50338320371913 17.493353727134195 17.47000660773498 17.43431041723926 17.387276862626543 17.329844016862232 17.26326585614934 17.189750828770084 17.113018441222245 17.038526511835727 16.9732712932266 16.925186634666286 16.902234680528657 16.91131057420914 16.95710608240319 17.04109698205602 17.160825007158145 17.309631739142418 17.476972429789054 17.649385438355345 17.8120920405198 17.95103477071378 18.05496630185359 18.11707490463742 18.135685708456393 18.113838495353452 18.057914085393087 17.975783466057333 17.87504488887262 17.761785919848755 17.4662965393121 17.3726063239048 17.28128023013802 17.19060807179534 17.10043863157 17.013790511041655 16.93749814728079 16.88137090967783 16.855827812139506 16.868599459328774 16.921573774412835 17.008964177561925 17.117632404846265 17.229721412587008 17.326977202979386 17.395518295349582 17.429564118903734 17.432876482806098 17.417363468541975 17.399226885496176 17.393867366065923 17.41117464448415 17.45266381604287 17.51124374875866 17.573490915318978 17.623498951354552 17.646967591632638 17.634302632346976 17.582032852504685 17.492555963650723 17.372793854951393 17.23254417222224 17.08312839154201 16.93652009359167 16.804747563788297 16.699202225945903 16.629594276655432 16.602576452432153 16.620341361137868 16.679654439190315 16.771758235548923 16.88339088549089 16.998864412020545 17.1028342225066 17.183156689585324 17.233158415649484 17.252761089679748 17.248183227131197 17.23028488037607 17.211936313260484 17.205011401323052 17.217701022112198 17.252791478118493 17.307339375599092 17.37380984858649 17.442315692822852 17.503256901177846 17.549565772514924 17.577963753412806 17.589039433823626 17.586373464644424 17.57518692328552 17.560998768741413 17.548596901900645 17.541389962809202 17.541050247510842 17.54735021186055 17.558203865199108 17.570040466603796 17.57864337948973 17.580435054739418 17.573944539029156 17.560999195044197 17.54716646877869 17.541163457815287 17.553264302927477 17.593030096385583 17.66686670591303 17.775969924169715 17.91517916740207 18.07314314111628 18.23396922039555 18.380154954810234 18.496149113356324 18.571544969073997 18.602892324122912 18.593534773145507 18.551613333446234 18.487098929922062 18.40905960929128 18.3241495387463 18.2366429672827 18.14958347638344 18.06616270795701 17.990479270612138 17.927273610240498 17.880806940273352 17.85345569226776 17.84467236201498 17.850749422604192 17.86546757850815 17.8813853438302 17.8913510186649 17.889825501282793 17.87375249910499 17.842906161509905 17.799782872739115 17.74913514543989 17.697210605996244 17.65075308201282 17.61590676760138 17.59729205480436 17.597560152062297 17.61757733412869 17.657073379728704 17.715296523332757 17.791165228772407 17.882684264523625 17.98587824179257 18.093914934115194 18.197172523439537 18.284647932899077 18.34645109120828 18.37651048719479 18.37436971338155 18.345242664345083 18.298194185481695 18.243081887120827 18.187369013984085 18.133911340425097 18.080400032127958 18.020542633003767 17.946529956138544 17.85200953484664 17.734698677955674 17.59789943220813 17.45048670549443 17.30537139411055 17.17688996362074 17.07789894107323 17.01742660333594 16.99950412919513 17.023338811166898 17.084489535978953 17.17638330124597 17.291519118184752 17.422024945281212 17.559677068456676 17.695803675482093 17.821505463865744 17.928358796138863 18.009416118012687 18.0601140980075 18.07875231077598 18.066443658533203 18.026681982001246 17.964771688171073 17.887294069489485 17.80163671544914 17.71550360194845 17.636312535785535 17.57045536662705 17.52249251756358 17.49443697892196 17.485333288170423 17.49133152665754 17.50636467209048 17.523353188129803 17.535640004900788 17.538217202760915 17.528350515682337 17.50545372711683 17.470399071361523 17.4246883479024 17.36991638790908 17.30773895003402 17.24025437449731 17.17050255115615 17.102771189333698 17.042539136660018 16.996059848698824 16.96969441272397 16.969122004406774 16.998529268654245 17.059857738039653 17.152186960009573 17.27134211146061 17.409828682524445 17.557206060801477 17.700995532262663 17.8281384732165 17.926855802961626 17.988551141128006 18.009257460562647 17.99016763244214 17.937044690156014 17.858677306587623 17.7648490796396 17.664386463891105 17.563734234671852 17.331925933959095 17.273802306623892 17.22305496071969 17.17464749431993 17.124845672153903 17.073251796335487 17.023904846791282 16.984826672319187 16.96588942798587 16.975545159885115 17.017491709272594 17.088495271904314 17.178273259856518 17.271677915997685 17.352643279498047 17.408721366367867 17.43475198301566 17.434406022998974 17.418991782336857 17.403823533810325 17.403298402930208 17.426282755162134 17.47328700127682 17.536255862979253 17.60088217572498 17.650526274914938 17.6703940071725 17.650722159514668 17.58825050480274 17.48596596122602 17.351678417423273 17.196212429136658 17.031843408106717 16.871224198596728 16.726674561465472 16.609525816410983 16.529270911718715 16.492482655090374 16.50169515536507 16.554589494507713 16.643838140889308 16.757845594497883 16.882405420744227 17.003030196130567 17.10747972503949 17.1879001063456 17.2420455503077 17.273274394190242 17.28931728318168 17.300115813195557 17.315253447359172 17.34160775920599 17.381816977979494 17.4339543210006 17.492458898584612 17.54997625696608 17.599471948791393 17.63593706086629 17.657231974566795 17.663998348673232 17.658917274625953 17.645747963581485 17.628508091082672 17.61093765067227 17.596167472833702 17.586416863577586 17.58261801853862 17.584053710328227 17.588270341675788 17.591554719809757 17.5900801578759 17.58150345902737 17.56649838097479 17.549615217370928 17.53902549725996 17.54506602322384 17.577874933956018 17.644677569485683 17.747387510604323 17.88116350427034 18.034426355331338 18.19056720209156 18.331146909096653 18.439864927101446 18.50616591331917 18.527306129823682 18.50815463387372 18.458837416895914 18.391183642978536 18.31537863369346 18.23803250931065 18.16213940656428 18.088518032156518 18.017735854182135 17.95147839195444 17.892772887835214 17.845117939540593 17.811072743055835 17.791023566120398 17.782672504361752 17.78143072988874 17.781531657654124 17.77745032798136 17.765181607776924 17.743062297128546 17.712026944628445 17.67535420096388 17.63802788579528 17.605829188681117 17.584276696540496 17.57759612930463 17.587992594748464 17.615498052153406 17.658486036370718 17.714626700819036 17.781777599264036 17.85827488841868 17.94238612052743 18.031185656025308 18.119541663110926 18.199988227330415 18.263895942943584 18.3036977483956 18.31531074842899 18.29966550551617 18.26256432481284 18.212798142174808 18.159199367369965 18.10773146462789 18.05965079157181 18.011319523591645 17.955654095916003 17.884700672652162 17.792556386489863 17.677809451277327 17.544816992451377 17.40344232678937 17.26728818492915 17.150899245263627 17.06673065255588 17.02275576165832 17.021357454597297 17.059679096535103 17.131087550991193 17.227050246367885 17.338710043172306 17.45774935937958 17.576586594298103 17.688284572616368 17.786594756794063 17.866326876219244 17.92391029615842 17.957826990774908 17.9686542098687 17.95868719965289 17.93134079799604 17.890605204319925 17.840731867585443 17.786141916873795 17.731403992517755 17.681091078059094 17.639393813890848 17.609496134636082 17.59285892115297 17.588663695700067 17.593692194037494 17.60281703808978 17.610058534385423 17.609906182276625 17.5984495318866 17.573922949749726 17.536538616782885 17.48782250875406 17.429882595296146 17.36500203026912 17.295696466628648 17.225073094321573 17.15716468601099 17.096960453383748 17.050046782166564 17.021961593014204 17.01745136833534 17.039792534413333 17.090262012800245 17.167780207860748 17.268727783935496 17.386947117315817 17.513966621057268 17.639518414357553 17.752430184385975 17.841918063678722 17.899164773074073 17.918875618701396 17.90037138312641 17.84781466869998 17.769403419708365 17.675704693492587 17.577573528245313 17.4841805150369 17.401562176422708 17.25048096754664 17.225569167576204 17.21030748282747 17.196931334141517 17.1788765349792 17.153081138317567 17.12140025365978 17.09044959128958 17.0696863048482 17.068218242662336 17.09139271225298 17.138390149096168 17.201757395161092 17.26917637566667 17.327006933297053 17.364514430099323 17.37739526677712 17.36936406491629 17.351155961374662 17.33715983274557 17.340734783108196 17.369747648440782 17.42379806742257 17.49398975830634 17.565206886333854 17.620022755345456 17.642918732266246 17.623561281318928 17.55838919206385 17.450448701549707 17.3079837141139 17.142534467634263 16.96718795220839 16.79529105448484 16.63959114478701 16.511572730515894 16.42076047230705 16.37389904237593 16.374098102414866 16.420165232161715 16.506399781762205 16.62307189659882 16.757665237943737 16.89674715263307 17.02811208905961 17.14271114904036 17.235898195575572 17.307692205006926 17.362013662968195 17.405113886350826 17.4436145259491 17.482673174396687 17.52476324257574 17.56938226406708 17.61370272317117 17.653848471549438 17.686267141187617 17.70869169551634 17.720437140898635 17.72212157918078 17.71514452871123 17.70127946202372 17.68255709151326 17.66135768167334 17.640449730562942 17.622710989864807 17.61045252444756 17.604548028601528 17.603798791541802 17.604994133581485 17.603897530253295 17.596978420207304 17.583314265367825 17.56591531507457 17.55187190818442 17.55111861761461 17.574066608753327 17.62870103543582 17.717898913871053 17.837710043732578 17.97718855056726 18.120055646498493 18.248000286201403 18.344855689454963 18.400434650759244 18.41273550243846 18.38770005991835 18.336602789744447 18.272094758281426 18.204451090377322 18.13939818305391 18.078112242123808 18.018991835666405 17.960107357700927 17.901120875958775 17.843918344265827 17.791901587286446 17.748482456833077 17.71556809120256 17.69269658608484 17.67711455137014 17.664680027777283 17.651190329450806 17.63365465593436 17.61114070425053 17.585032922602014 17.558732668029133 17.536934059321617 17.524633129225602 17.526040516106026 17.54361923168899 17.577525785121644 17.62569571472912 17.68461269261862 17.750484188730677 17.82028908220828 17.89215399585096 17.964824146920495 18.03649573013198 18.103700877689267 18.161018121491267 18.20202325870075 18.221247793384016 18.216313088895667 18.1892016448153 18.14595442884456 18.09478745719249 18.04333279901632 17.99607178566378 17.952902544263523 17.909298112524738 17.857936204243927 17.791248884037135 17.704140943291954 17.596134387988606 17.472357181243694 17.343072963993347 17.2218170419749 17.1225970153826 17.056917307584133 17.031467694781632 17.047108808747392 17.099341122921537 17.179926825509238 17.278970204211962 17.386718753372868 17.49463279879083 17.595716144054258 17.684448377075416 17.756727417595002 17.81002331641933 17.843641565736146 17.858818004522927 17.858426361413944 17.846307810848636 17.826457379182333 17.80237764120183 17.776806050020397 17.751820937379325 17.729151830914706 17.710442692953205 17.697258620138165 17.690759358034285 17.691138094432798 17.697078562286556 17.705543718697477 17.712118257280217 17.711894016590872 17.70061389898811 17.675632222102266 17.636320530907064 17.583828473813107 17.52044095785684 17.448953054644743 17.37240322547205 17.294224385631548 17.21858069065469 17.150539528512855 17.095836371936343 17.06022604388621 17.048616115770997 17.064242217813213 17.108078117482027 17.178555804565615 17.271578375023154 17.380768236958897 17.49789450587709 17.613449827693806 17.717384892902842 17.80003399430111 17.853237780999848 17.87156587581023 17.853394838710393 17.801498665032156 17.722855571970005 17.627585504414743 17.527216766441352 17.432690005914356 17.35254530095356 17.29162560535263 17.226245994273054 17.229359411869588 17.241391494002166 17.25267966897846 17.25483804806201 17.24313797630649 17.218060215982888 17.185314131210013 17.154096161295687 17.13403450769314 17.13182574264069 17.14875022377437 17.17998193497949 17.21600457424794 17.245734239983438 17.260359399970195 17.256619167178766 17.238354573276105 17.215685143421524 17.20195046580237 17.2093517368988 17.24472432811666 17.306853487170592 17.38620227990262 17.467070200855698 17.531387892361092 17.56289204503069 17.550459250409943 17.489834620848875 17.38363350983673 17.240044538765396 17.07092625515406 16.889932169241597 16.711029415540594 16.54746942871965 16.411065750678045 16.311584212611873 16.25612106461284 16.248468313030713 16.288585031103246 16.37237011188116 16.49193597638922 16.636494049902257 16.793792288536917 16.951851056482237 17.100613630248425 17.233127497571324 17.34600416859356 17.439109145973806 17.514634272121718 17.575851220309854 17.625914284169745 17.66705387654319 17.7003612252358 17.72612828772114 17.744464500631604 17.75579784820719 17.760969823395946 17.760910313270205 17.75616436502809 17.746655975712546 17.731939721432422 17.711889200471774 17.68747842592113 17.661192170758415 17.63672215574989 17.617921116220707 17.60736287576764 17.605123728988985 17.60841460506467 17.61240611179003 17.612094475559566 17.604572881174267 17.59083496058584 17.576364230216395 17.570188926429907 17.58260491687013 17.62218471411436 17.6928947328519 17.79214084189838 17.91039194129251 18.0326989367468 18.141927604841385 18.222931860014516 18.266416309328342 18.27114962514385 18.24366218271809 18.19548979511802 18.139021928779716 18.0835875034716 18.03325508624417 17.98700528374141 17.940869330838062 17.890846491119525 17.83525484859713 17.77562631169994 17.716021524428818 17.66131822866499 17.6153436532008 17.579624380535353 17.553147952482732 17.533079655193145 17.51604097150358 17.49943282841453 17.48237387326652 17.466034930002177 17.453367058599355 17.448359183906142 17.45501671568406 17.4762782166024 17.513125104475062 17.564162962687682 17.625882075219472 17.69358878112052 17.76269553405225 17.829827867809335 17.893220727810778 17.95218917068729 18.005945067505984 18.052436184764083 18.087956421687647 18.107925284971138 18.108609385431986 18.088989989685633 18.051801481019186 18.003104909029698 17.95044938715783 17.900340003911055 17.856029552683175 17.81646989871979 17.776752835373756 17.729824435207473 17.66889386934792 17.58983997993894 17.492986851321287 17.383793040242736 17.272240660935555 17.171011144415004 17.09285999434068 17.04786521554187 17.04130843503262 17.07277828847067 17.136687799831435 17.22391422989968 17.32391058939505 17.426572783342248 17.52340044783146 17.607911935532027 17.675619039384728 17.723948803497063 17.752311719851527 17.762226273730406 17.757235462366364 17.742403956295423 17.72340985114947 17.705479994152757 17.692515723189572 17.686673657413145 17.688467305346123 17.69724770478124 17.71179293002226 17.730727328217853 17.75259881161562 17.775628357992982 17.797337503464504 17.814361798184134 17.82269612255765 17.818396539325263 17.798493262002513 17.76171587876259 17.70870829178677 17.641687458672944 17.563808316639285 17.47863688522325 17.390012177406128 17.302279159397727 17.22060146336333 17.150990009212922 17.099842461453502 17.073056251896272 17.074982939103457 17.107535404495245 17.169663393007472 17.257269852841198 17.363530379497384 17.47952460585298 17.59507588054598 17.699705975726697 17.783636594535274 17.83879510793427 17.85977961009991 17.844686858611922 17.795627031617837 17.71870907457242 17.623347837909844 17.52092369458664 17.423035370881543 17.339710743462682 17.277916806073645 17.240584196130587 17.253708976167367 17.27820049455327 17.308068620700364 17.332647773972656 17.34280612444286 17.333215488891213 17.30385378853789 17.260064600718145 17.210946203967584 17.16648244449062 17.134354357411436 17.117535932357516 17.113517849767984 17.115444850771038 17.1148111882566 17.104837703729025 17.08339756287243 17.05444523296928 17.02733982756804 17.014139955759347 17.025668197317273 17.067625421620846 17.138064204465554 17.227070244614705 17.31872951318718 17.394692827331493 17.438190346292618 17.437344440564644 17.387022557301417 17.289049557987116 17.151110672354218 16.984947647408426 16.804444408251342 16.623999063557328 16.457324139061402 16.3166206608668 16.211982931314658 16.150899849690216 16.137790314331216 16.173608312189764 16.255641398341474 16.377662831726983 16.530548677498185 16.703339648127553 16.884568659186595 17.06357152506788 17.231505289827687 17.381906632563975 17.510770044323266 17.616249291408078 17.6981593080403 17.7574792602244 17.796025427398657 17.816358837052565 17.82183088782768 17.816529559050988 17.80488351186963 17.79086693556015 17.77704472410956 17.763916955175187 17.74999284393707 17.732723387115232 17.709998049922806 17.68159178934097 17.649903176070357 17.619579383923387 17.596071864853187 17.583627683439218 17.583510943428383 17.59323385389228 17.607230132050155 17.618837703740205 17.622905016759958 17.618046017814343 17.607676617979774 17.599410339640112 17.60296240979552 17.627181589512634 17.67707045661217 17.751662103274334 17.843439297490654 17.939633938164373 18.025238273375546 18.086968858068285 18.11694878874051 18.114782461443443 18.087161133049584 18.045063069475937 17.999616495347432 17.958281144593542 17.922850316924208 17.889935190941202 17.8534867986183 17.808085734102633 17.751552907949804 17.68591322899446 17.61656623902021 17.550262745551773 17.492851274168327 17.447671658710476 17.415068578366363 17.39300156328595 17.378345087882927 17.368316916699467 17.36154783284147 17.358524521498182 17.36137724963312 17.373153866452064 17.39680341366184 17.434125792268283 17.484964362645403 17.54690799806026 17.615669016478282 17.686083650386987 17.753403887112526 17.81435836998789 17.867498846928445 17.912654777044633 17.94977261964113 17.97778390282572 17.994200357381576 17.995795273276297 17.98014076585449 17.947245551234026 17.900391142234984 17.84561006297069 17.78991225450463 17.738979030995555 17.69528078646465 17.657346756630677 17.62039970103028 17.578058460465414 17.52451963324038 17.456592459868336 17.37508624598918 17.285232156575805 17.196018157355127 17.11853600748573 17.063682187480296 17.039767055292106 17.05067276026854 17.095079927098503 17.166955442554393 17.25706845254403 17.35496428516591 17.45074323143995 17.536204935383484 17.60530346988148 17.6541854245867 17.68116943588459 17.686852037088922 17.67424410512827 17.64866281398829 17.617144264150205 17.58736304562826 17.566299137011846 17.55903278682154 17.568012490759937 17.59296494027951 17.631387688196167 17.679377099732037 17.732462231106645 17.78616918168136 17.836212500172017 17.87842703734517 17.90870292322894 17.923172917481942 17.918717405116105 17.893604696789573 17.847939545076507 17.78366348922442 17.704105052586886 17.61334881320562 17.51579016841383 17.41609258765785 17.319465052418135 17.23193217954278 17.16023933888208 17.1112282422907 17.090797783023646 17.10275903164441 17.147916594574937 17.22359701051009 17.3236970989879 17.439216123151645 17.559178204820476 17.671821484556776 17.765910543422507 17.83202186360363 17.863663471356286 17.858108030716323 17.816826804600314 17.74541537069465 17.65293546840467 17.55069396850029 17.450626660457257 17.36358146180019 17.29782186726514 17.257975964236767 17.24450894989186 17.318881348174703 17.35805220259093 17.396907397474084 17.424567792912157 17.432