# vtk DataFile Version 2.0
Really cool data
ASCII
DATASET STRUCTURED_POINTS
DIMENSIONS 200 200 1
ORIGIN 0 0 0
SPACING 1 1 1
POINT_DATA 40000
SCALARS temperature double 1
LOOKUP_TABLE default
18.20170364444603 17.972329303347024 17.711995771962805 17.42896594171515 17.135349185357676 16.848992564986144 16.59416075476867 16.399024402494135 16.289541766547064 16.281599193885242 16.374524371857678 16.548581686345482 16.76754310930694 16.985974673868082 17.15975778147607 17.25728308369745 17.267901003989703 17.20447063777819 17.098759042968016 16.991260087236785 16.919119378718573 16.90616797160985 16.957782990246134 17.061422318342956 17.192040441493997 17.320392544646676 17.4214661493501 17.480203163810245 17.492706491516252 17.463193040855653 17.399077365100506 17.30734944113361 17.194203398670894 17.067492366671214 16.939689529608376 16.82878090043173 16.755782671935584 16.739387867578095 16.789659493491957 16.90323396269713 17.062088644991412 17.23670475131001 17.392844407830346 17.499823890783706 17.53769378161228 17.50129331063845 17.400404819451058 17.25659001442447 17.098127870711032 16.954470750797086 16.851034718021715 16.804657329515802 16.82022406940703 16.88950058085589 16.993222526597634 17.106458696000054 17.20567824857718 17.274961728710245 17.309154738977035 17.31324183630868 17.298881931367184 17.27998537921325 17.269063578113222 17.275124007613872 17.302823654986213 17.35214138496728 17.418210490172587 17.491700651699936 17.560458622241054 17.612590617454376 17.64015398618496 17.64194885015616 17.624148363899923 17.59855572913217 17.579416459911585 17.580194498097068 17.611298771607835 17.678858775708054 17.784050110072666 17.922605547333063 18.084766727749916 18.256338866738226 18.42120173517489 18.564745265915708 18.676896537566368 18.753329327532846 18.794264031233304 18.801571514818587 18.775942610505748 18.715980371941193 18.620013399507457 18.489751563245758 18.333637273069243 18.16772492904991 18.013196918121494 17.89141203844779 17.818592350004998 17.802215524056336 17.840081258439884 17.921727417428567 18.031186447439538 18.15009917794448 18.260479657282023 18.346631255393298 18.396023249212256 18.399538799368596 18.352006187362687 18.25360556123361 18.11154251945137 17.940343819973297 17.759506102254107 17.589041626134463 17.44523091807623 17.338949437299874 17.277076941085063 17.26521043025486 17.30900086278657 17.412516278704143 17.574179210408396 17.782572995667095 18.014845294961148 18.239486421645587 18.423377211874282 18.540896948906653 18.581488648311005 18.552307082167353 18.474641657952603 18.375720946345382 18.27952517952188 18.20017498706768 18.139664937377628 18.089618611104747 18.035582126200378 17.96226831738008 17.85847446162386 17.72063173436339 17.55416455370991 17.372311355664035 17.192810945442055 17.033620280470068 16.909244324687954 16.82904926920384 16.798020534780733 16.81910926902853 16.895282067604956 17.029405930406142 17.221390012405 17.463915421101262 17.73938469709419 18.02043838732924 18.27455670156452 18.47101992070338 18.587319882901568 18.612738872245572 18.5486527662213 18.406720072719214 18.206401485924374 17.972389823387633 17.731652823636107 17.509829029333957 17.327528791146843 17.197716561628948 17.1250329543149 17.10686666007257 17.13514927441076 17.19794472993948 17.280748211476674 17.368111546988516 17.446056166876755 17.504823306428584 17.54066181019633 17.555407948786527 17.553727578647184 17.539349820045746 17.512334624176823 17.468804916556344 17.403083501679806 17.31091123128016 17.192200114854927 17.052476385448138 16.903000697232347 16.75986855229821 16.642238262016004 16.569720955533235 16.559217549391512 16.621873367249545 16.760886897379184 16.970546477248895 17.236451323679894 17.53680724236136 17.844911752452184 18.13295892818141 18.37671785076252 18.559732660040098 18.67529007235342 18.725171382385234 18.7158874659541 18.654509490047836 18.546222962372852 18.394322721351006 17.896304092572635 17.700782015155617 17.489506907325588 17.265440194621753 17.034294014801333 16.807513903083972 16.604114742813234 16.449091271454478 16.367714962844836 16.37745939446589 16.480764266464707 16.66152617537112 16.88674190052431 17.11319014283202 17.2977591344752 17.40880156378949 17.434955134785422 17.388088720751373 17.298955605144986 17.207023060350185 17.148200074689083 17.144652857745747 17.19967803889785 17.298629127071166 17.415014293145695 17.51946362617563 17.58845180628469 17.609758230253732 17.582964483595482 17.515583424815624 17.417565507070847 17.29752084608092 17.162510841190738 17.020706949954082 16.88437649422694 16.770643225474103 16.698962503399816 16.68606361165139 16.7402677427004 16.857315550977077 17.01932295992368 17.197503735204283 17.358122663371027 17.470106393550953 17.512190294211404 17.47763443974956 17.375365598787713 17.227571916064463 17.06475354752917 16.919563313366606 16.82050533632896 16.78626763606837 16.821622784576878 16.91618142333515 17.04703134617903 17.185038504810866 17.302919261360014 17.382253850882748 17.417077628149748 17.41325851898845 17.38461043650009 17.34773364197974 17.317553984568455 17.304656318741554 17.31436984650913 17.34684760989264 17.3974537599511 17.45740924140815 17.51519566416185 17.559118605389422 17.580687232671426 17.577651834837585 17.555350866982177 17.52570933171058 17.504371768842805 17.50723332911357 17.547513008575226 17.633706003000647 17.768051511146933 17.945220527633555 18.151670560272525 18.366731630308667 18.566184281027574 18.727811271607404 18.836956884824524 18.889592435238132 18.891326304483957 18.852831352145238 18.78414171027193 18.690939585101894 18.57477533437843 18.436784544560073 18.282364248648552 18.123762799491907 17.978870149146164 17.866726896851624 17.801978661178175 17.79075299567205 17.829351982259844 17.90568567309078 18.00245031775946 18.100884398886755 18.18410978415864 18.239285475528025 18.258227535022062 18.23692681923798 18.175067692372824 18.076432479911063 17.949867444637263 17.80933286214077 17.671759730462973 17.553105283742376 17.464733008176825 17.41237636179873 17.398176010920697 17.423991836110304 17.49320110213916 17.609214838476007 17.77117074735127 17.96921741389274 18.18241903395642 18.381338397687703 18.535229827638826 18.62138199121611 18.632661847484723 18.579717869316802 18.48666890142576 18.382198929898287 18.28994274025399 18.221810851336333 18.17599628313751 18.139343217433346 18.092629315429754 18.01708142982917 17.900494123299044 17.74138407298294 17.549961284187766 17.34558453677874 17.15157706740234 16.98926050276775 16.873355043421906 16.81032883133305 16.800006240305706 16.839221689878396 16.92525464351098 17.056887682265348 17.232336698513166 17.44531183310832 17.681834515349838 17.920188772762074 18.134586187798458 18.300930720550678 18.401962848250566 18.429753061755566 18.38536912821966 18.277078499926624 18.11858283162411 17.92772464100606 17.725052972700627 17.531579354695623 17.365896757339296 17.241610192006306 17.16594872249252 17.139641939528452 17.157495083763123 17.209206255586384 17.280603984903415 17.35584081156859 17.420622463177878 17.465552894968525 17.487995971743537 17.49123448843481 17.48111682871192 17.461926814235177 17.433743428190827 17.392608259316027 17.333075970745515 17.251485168084397 17.148340915278077 17.029198310522943 16.904363818431744 16.78792062682776 16.696236553269987 16.645883213373512 16.65110548299294 16.721333292291575 16.859264146555205 17.05973681827303 17.309386511578936 17.587242585384672 17.866772209560484 18.11977840540256 18.321695883761898 18.456632143247383 18.519980828059232 18.517311809677455 18.460168738089504 18.361052453290284 18.229993229440364 18.073674208618577 17.580913272706557 17.435798324438686 17.29027495739746 17.140749736306503 16.98528199946679 16.827829023354692 16.681403177498154 16.567526672443485 16.510998277657556 16.531577905014785 16.63589558278927 16.812763135172087 17.033665438356945 17.258595573517518 17.445992467209646 17.564195521070218 17.60077122225836 17.566153015449352 17.489856692221494 17.4104677690986 17.36308623400801 17.36868350508669 17.42874806876361 17.52647241170511 17.633515717876257 17.719681290780482 17.76201902338666 17.75018261161854 17.686463840898387 17.58135974295534 17.44762831726526 17.29622272536011 17.135878281995073 16.975557672710647 16.827226181691113 16.70655383905612 16.630684373715727 16.613901698803367 16.662911378593144 16.773429314471866 16.92924009211791 17.104214202137104 17.2670629905131 17.387874730765247 17.444844583967164 17.429367196077383 17.34805592304618 17.221226153758774 17.078448491997147 16.952363464076416 16.871939940573057 16.856224331261124 16.909806762925793 17.021473715306062 17.16708212356527 17.316272582516685 17.440920063985278 17.5223485583358 17.55491653761048 17.54522681753009 17.507970786936095 17.46046234331427 17.41793801339114 17.390868793905323 17.384343787727637 17.398673774652135 17.430194577142764 17.471835620970968 17.51384859115505 17.545456864048766 17.55771159967936 17.54682544816717 17.51651447806861 17.47809790373629 17.448208205895664 17.445116229751992 17.485004262776997 17.578913590641235 17.73029644236617 17.932993740778976 18.170181240341314 18.415584005593267 18.638016454387653 18.80877184442089 18.909413252298847 18.936540106009232 18.90107022996576 18.82220037149085 18.719029600992698 18.604087536148267 18.481817230862514 18.352106688097553 18.216104751524643 18.080548050570496 17.95811467853744 17.863861471135586 17.809911187579196 17.801091315105424 17.833243228064223 17.89439894027871 17.967952575379673 18.03660904256175 18.085944542863345 18.10661347882853 18.094735741447604 18.050888358825866 17.978895307109738 17.885457054531972 17.780485611066474 17.67684370122325 17.58830599952444 17.52610080952203 17.496015162050764 17.498154033726504 17.529720520758215 17.588937537071576 17.677235048484324 17.797836196431938 17.95116984489462 18.12965019375517 18.31511065366822 18.481168781728613 18.60044321915008 18.65390267060314 18.63810200485538 18.56670971564957 18.465428314210715 18.36263307192768 18.279840595033118 18.225565696956284 18.194041140722025 18.168281469016502 18.12601559558112 18.046836314672422 17.918846200395528 17.742996502841255 17.533671468046798 17.315160865485996 17.11514664254343 16.95748177681931 16.856804558654307 16.816786495134146 16.83231524370234 16.89421565546718 16.993968113832654 17.125978346694506 17.28641957327235 17.46977599874547 17.665667328384867 17.858325481125416 18.029322247275065 18.16202801590891 18.245302949713928 18.27471911988146 18.25146597776798 18.180506323218435 18.069501097677698 17.928788699823937 17.771519580516472 17.612912061187863 17.46842528524834 17.35150867436557 17.271712805744524 17.233440638070256 17.23521114518143 17.26948064335808 17.32352483602448 17.3819072480469 17.430304392194625 17.45936755065386 17.46677185968501 17.456255597768877 17.43407331142466 17.404849526188414 17.369170375384446 17.32405399966269 17.265575992616313 17.191802846894227 17.10451391800488 17.009409427952576 16.91543247305655 16.833842380332385 16.777134749399092 16.757590544389057 16.785454710829537 16.867104197028148 17.00357713921607 17.189537127129928 17.412627787435365 17.65352648544997 17.887482626942926 18.088009157952236 18.232352041385624 18.30694264429026 18.310386342288975 18.252444534141752 18.14953724927876 18.01910362892721 17.875381092772617 17.727739407471983 17.29788215455373 17.212436830651388 17.140433210056305 17.07132367499214 16.99511844304443 16.90794235394222 16.81658212903704 16.739038839341987 16.699789411661648 16.7212335094587 16.81474037082369 16.974761781814887 17.17811418493208 17.38884512857777 17.56760733306358 17.683065773404365 17.7217113558251 17.692343827449697 17.62309312794662 17.551757892150135 17.512999689060223 17.527109899520607 17.5942159361781 17.69552911843142 17.800634765549294 17.877823998143164 17.90362988796578 17.868279317886618 17.775589739946046 17.638314813163497 17.47192793164769 17.290163284772746 17.104051778445083 16.923765202743436 16.760978861489484 16.629600191686112 16.544127528314966 16.516369074848186 16.551891172905474 16.647389192433266 16.789722889889305 16.95702281584907 17.122002450894982 17.257140303785107 17.34068285230671 17.361820473629894 17.323409650729253 17.241404715145883 17.1412656385563 17.05234303875267 17.001388483307867 17.006318650062603 17.071594915201715 17.18679478295538 17.32941526356912 17.471426510323898 17.587363321931072 17.660982243355726 17.688249648045144 17.676147268569608 17.63846663558786 17.590652431387085 17.545657998815816 17.511927370151994 17.493450862495784 17.49088337155616 17.50245452238347 17.524012117727825 17.548645789650887 17.567115137606987 17.57004562830671 17.551601534543614 17.513018589558563 17.46408119202049 17.42165807648173 17.40594984402687 17.43595638553118 17.525359001762006 17.679150922974877 17.891000249771455 18.141912262431948 18.401579341275312 18.6336615589134 18.80459171777872 18.893149380721006 18.896674048969054 18.830684925668717 18.72171002712394 18.59664851676119 18.473815533633207 18.35971726632107 18.252231171091314 18.14736703426942 18.04528164492657 17.95236747051088 17.878945787899838 17.834506926110393 17.823258935254866 17.8419516054091 17.880483465611583 17.924657509935823 17.959945158841432 17.975015485065647 17.963922116590776 17.926368717928348 17.866426869001458 17.79090016576039 17.70842254911261 17.62927045000994 17.564766151861434 17.52526237738074 17.51712341403249 17.540577708563145 17.590322483757706 17.65905361250773 17.74193049042968 17.839049696810086 17.95403050954943 18.089148313396922 18.239661379122296 18.3908123532111 18.519938117591828 18.603574670942525 18.626605102072133 18.588981917251523 18.506471587146645 18.404887804577978 18.31058080942259 18.24146695776854 18.20192007936561 18.18253520230287 18.163880204239856 18.12267929978214 18.038916498847623 17.90230547618237 17.716381315981177 17.498720989253172 17.27687809214856 17.08117830011482 16.9367803338649 16.857742580409884 16.84509005457424 16.889304031849154 16.975822674166896 17.090842194728108 17.22470031108109 17.371600397035788 17.5266497712461 17.682747258054256 17.82968843005517 17.956088250862898 18.052659810324712 18.114544127670165 18.141303133859427 18.13503771568971 18.098375189213662 18.033856840977 17.944907917118147 17.837314718475877 17.719919607264927 17.603991976941554 17.501588879759694 17.423491453796117 17.377082952340515 17.36441627017415 17.38100935793496 17.41622393549316 17.455787139085793 17.48596851219567 17.49775353659873 17.48898504087831 17.46335213920249 17.426878641468218 17.384061793495032 17.335934765754306 17.280912555867747 17.21738467249358 17.146092893895094 17.07095817160621 16.99842719993673 16.936301935902197 16.892821330879237 16.876019057287923 16.89297752465238 16.948822481731757 17.045681334218475 17.181833884640266 17.350992128652564 17.541598210096545 17.736513401533248 17.914062365765446 18.051300069308674 18.1292385374719 18.138224060917977 18.080919649014692 17.971242056775314 17.82971057784434 17.67751660797376 17.53187477824475 17.403820972191397 17.085423112285824 17.059550696582956 17.057638458535045 17.06294558466535 17.058242114865134 17.032519084799297 16.986816999740572 16.93581902987183 16.90361589922784 16.91500364381532 16.985831556066582 17.11611205292977 17.288242531689434 17.470920569285276 17.627806415104953 17.72862867198853 17.759260527993202 17.726979007914625 17.658417207209098 17.59048730902474 17.557524851720313 17.57952172228069 17.65577600067187 17.765961162173184 17.87767646242557 17.95724391895767 17.97965519158868 17.93430137290838 17.825078827715764 17.665889470675086 17.474385805565902 17.267101778431645 17.057704955036172 16.857953406506592 16.679482931493478 16.53459400220463 16.435357785362367 16.39153176361692 16.408206744797305 16.48388215152226 16.609368780438718 16.767914062997583 16.93703753034391 17.09228917320822 17.21235016309648 17.284024663987726 17.305419920393486 17.286258745706853 17.24535213946143 17.206027263256754 17.190500948878153 17.214235854631845 17.281620419878763 17.384556141895324 17.504960304657107 17.620624103846914 17.71218813401898 17.7684285385649 17.788011083752632 17.777665966063815 17.748233998165148 17.710559363234065 17.67279434224303 17.639749621719883 17.613884723758492 17.59674958445509 17.589536323045184 17.59210984503585 17.601192495948858 17.609425925881133 17.606888115228063 17.585147689029927 17.542077678613865 17.48486511807611 17.429579222076402 17.397542662178072 17.41013068624038 17.483655430358635 17.625118840682347 17.8290177067394 18.075757127624886 18.333045068799215 18.56160663724415 18.724906334265462 18.799985261047716 18.7848136874358 18.69830865362531 18.57243184243947 18.439835609635008 18.322869974174377 18.22884522936528 18.152817993024396 18.085154388570043 18.019145835810622 17.954875992886457 17.898299428011295 17.857135320204197 17.836291530637926 17.83500214727527 17.846548825927126 17.86027089120764 17.86489929194745 17.85195630002394 17.817987897513078 17.764911944320005 17.698747957530344 17.62784485582655 17.561667010191503 17.51018953035478 17.482965720322532 17.487075449092515 17.524477375173888 17.590549282401728 17.67546580774617 17.768368103336545 17.862236310075577 17.956541595414546 18.055804729446063 18.16451271121547 18.28109021777577 18.394520066943024 18.486147596908733 18.536527966221055 18.534199292255757 18.4817811135655 18.39596310622889 18.301240252396926 18.220572492887754 18.167348842726053 18.141635484889726 18.131140261222832 18.11554866917304 18.072565330570697 17.984373126873013 17.843324650675058 17.655425108169247 17.4402308667404 17.226676071473516 17.045803286947447 16.922668410316874 16.870161249654895 16.886884425632907 16.959719982400735 17.06979712766169 17.199089371155587 17.334691734262186 17.469270685788146 17.598501469802965 17.718003706817573 17.8221711761851 17.905506101628408 17.965025382967465 18.001560340454603 18.01878472054579 18.020646162396442 18.00905320676302 17.983361585127394 17.94183589058718 17.884002058802363 17.812507264547214 17.733686307989412 17.656774020060812 17.592047827940707 17.54823126670773 17.529684557270535 17.534357761541205 17.553697368951877 17.575110262207684 17.586268924183578 17.579312436056124 17.552815928741254 17.510578200599596 17.45816772951345 17.39952454640485 17.33573604230349 17.26645681510124 17.192559505515224 17.117937074296336 17.04933256563337 16.994671277176753 16.961226792621385 16.954564083555635 16.978252350027425 17.033820777481118 17.120628970460217 17.235715598585656 17.373710032335122 17.526622900643197 17.683332574028793 17.829138306020113 17.946404338144305 18.017252576722825 18.028137604435106 17.974600179570604 17.863772218032892 17.71307939800397 17.545609074819954 17.38433964826131 17.247596922254118 17.146733191704172 16.97065847329442 16.99560270975114 17.0499463372414 17.11260462079341 17.16112909082022 17.179181558149082 17.16331409186481 17.12540062653557 17.08888639149344 17.080119455144416 17.118345441749046 17.208226451937197 17.337348812431472 17.479338742552997 17.601701032403817 17.67628506924705 17.689209919438063 17.646611250978296 17.573503591161348 17.50553349991527 17.47643701512291 17.506008860554054 17.593221808981607 17.716886700526537 17.8430973831816 17.936170791135247 17.96887108294988 17.928524628912665 17.81763161432427 17.649881663717057 17.444142779152546 17.219294004673944 16.99163795018982 16.774831321557887 16.580975198265083 16.421400261196396 16.30648699850407 16.244705070525395 16.241322229479252 16.29704081429965 16.406721239337553 16.558634960062648 16.735033943100504 16.914649492983308 17.07686799135348 17.206304802267837 17.29611661639576 17.348964996080788 17.37556276078828 17.391419780762813 17.41253743477045 17.450856106509033 17.510629921998202 17.587200061818365 17.66906890059076 17.742626302459858 17.797340200460102 17.828943861832858 17.839412018091817 17.834371263587833 17.819765456372156 17.79954295607797 17.775225604540008 17.747165952093663 17.716532519307513 17.686703264319437 17.662909313345445 17.649817644478105 17.648112417003293 17.6522510086325 17.65142286310242 17.634037162028868 17.593801485265857 17.534275386962964 17.469591411470915 17.421169100766857 17.412081357948676 17.46111617684595 17.57774714515128 17.758413996428175 17.98465488629958 18.224391660776735 18.43773919816238 18.58713815463667 18.64892388907895 18.6214809412623 18.525682337929627 18.39664710105938 18.27026236349427 18.17070911530011 18.104558785290745 18.063266868747444 18.031477942070957 17.99613195784092 17.952009504640756 17.90209796114272 17.854001163939298 17.81503739032601 17.78844024612683 17.771942633741528 17.758845722600977 17.74083298191739 17.71128330241689 17.667719768621417 17.612499572377125 17.55183954880975 17.494153103887985 17.448691663008375 17.424605696734016 17.429690012537584 17.46826185036464 17.538811463641423 17.63311183734561 17.738197143139995 17.840961403218653 17.933241949223593 18.014537206883794 18.09055230582751 18.168019496990176 18.248462456226584 18.324517635480905 18.381397971539673 18.403357626316737 18.381968241626314 18.321576070044145 18.238668148680798 18.155356859712658 18.090480725011822 18.052709533484133 18.038243629932364 18.03294579532379 18.017089538177903 17.970942912439128 17.880162893012468 17.740295858053752 17.55940671670568 17.35770363242241 17.163609641756523 17.006967267527905 16.91131695173585 16.88781365179025 16.93298452432483 17.03118750245177 17.160709858513837 17.30079116516861 17.43647441394334 17.55954771982527 17.666238945646967 17.754159382495416 17.82094755688014 17.86526276434771 17.888716762917873 17.896619211083426 17.896461677379477 17.89487849158963 17.894940057985423 17.89533246208234 17.891705499889678 17.87928199309956 17.855435426327993 17.821289826270878 17.781922541227008 17.74508326616339 17.718607649522095 17.707201672205375 17.709903357903602 17.719686212745337 17.725840110562913 17.7182129432497 17.691139422192997 17.644913985182214 17.58412107066148 17.514122764391722 17.438162563154116 17.357001891719605 17.27109865371726 17.18348371993122 17.101110371436253 17.03374677774215 16.991273155778227 16.98108139229873 17.006725167006124 17.067834685959312 17.16066381072201 17.278781319995108 17.413809181043735 17.556161841335282 17.695509115185555 17.82070893502119 17.91950772691541 17.978950427597745 17.987404696776892 17.938089393751476 17.832631943694615 17.682589848764284 17.507715449784563 17.331539752032718 17.176273810141964 17.05899370009923 16.989724807158638 16.96376586788721 17.025297401876063 17.11540047460752 17.21113313001695 17.287681621466554 17.32603505857071 17.32018848947124 17.280059050372856 17.22814756446253 17.191139970797696 17.19002253805864 17.23257547023851 17.310651250684298 17.40274359948067 17.48093695254361 17.52036651704238 17.508466574760803 17.450753155302742 17.37043935686557 17.30123702730547 17.27559594930528 17.312860625477192 17.412044257895186 17.551914920830104 17.697933925256105 17.812917564593157 17.867281134695453 17.84551864612474 17.74750268761985 17.585310805511224 17.37776816858869 17.145227008985263 16.90627397839835 16.676651061944945 16.469568461443632 16.296335484307896 16.16668315508148 16.088668921934488 16.0681884161431 16.108009900301262 16.20635934676954 16.355581522928862 16.541863485289923 16.746828002582138 16.95088191932713 17.13716204411142 17.294581372795356 17.41906539244983 17.512987810721576 17.58330676070077 17.638863602820408 17.687305142208157 17.732505169518753 17.7737229851485 17.807211013461238 17.829517136507654 17.84041633653651 17.84350101991626 17.844056460498706 17.845718280592358 17.848132536991237 17.84703507458611 17.83663783622072 17.813039300576367 17.77703269281564 17.734971896106302 17.696991755372135 17.672858344934706 17.66699118572787 17.67516826660485 17.685163628064323 17.681724645532306 17.65380298529466 17.600520599577052 17.53304547016309 17.471824425744355 17.440787414776846 17.460832932496483 17.54416556563115 17.690098090447545 17.88285712839043 18.092602343328483 18.28101968099049 18.41140007679065 18.460426911499376 18.426761326848155 18.331851306167447 18.211667202816233 18.10267605471157 18.028508817790467 17.993367435470102 17.98446502646442 17.981086755386627 17.965036597255672 17.92760392411892 17.87089640642404 17.804428058751412 17.739593330530617 17.68472035883166 17.642409831545443 17.609647736882664 17.58016212051497 17.547784163046185 17.509312115293636 17.46577810810759 17.421993650825883 17.38516662870613 17.363502863114434 17.364988211987853 17.39583983900693 17.458316397160722 17.548618283508766 17.65643417759255 17.76729500899366 17.867322146017546 17.94826930285946 18.01016853839742 18.059886303084987 18.106005311576972 18.152584274172558 18.19532339847888 18.22271330412086 18.222052278423675 18.18716701978835 18.123276047457768 18.045911491290006 17.97438449981383 17.923487682488716 17.897751497529377 17.890468955772754 17.886806784288268 17.868774475242617 17.820162407167878 17.73067179445934 17.59903072677083 17.43465200905907 17.25702894788458 17.09230324294625 16.967362315973794 16.902957693393162 16.908074902504982 16.977690612489244 17.094966986309508 17.23711290567242 17.38238768209337 17.51513958255259 17.62698632164644 17.714650473806394 17.77690403088612 17.813124278290445 17.8241801034876 17.81427848869393 17.79165303264721 17.766978208528954 17.75014379172508 17.74712638095672 17.758505461814636 17.780109524483287 17.805231821947824 17.82739193139309 17.84268693457322 17.851014538172716 17.855685949931548 17.86135174195882 17.870915702535612 17.882924510732334 17.891075797440887 17.88649922761125 17.861751715761926 17.814215463545075 17.746822601555326 17.665734910528084 17.57665445233561 17.482374334128494 17.383266871165116 17.28025406541082 17.177999898964817 17.085963108380536 17.01654738649535 16.981531423915442 16.988773248538514 17.040511303357725 17.133320241258936 17.259038141841973 17.406074951617075 17.560896577826046 17.709558056274883 17.838953944020222 17.937454540507353 17.995065194811442 18.003811377510065 17.959050974273772 17.86161982104879 17.719684119411568 17.54882764649273 17.36969980615787 17.203992209977628 17.070471807287728 16.982471101817474 16.946903837710384 17.055025765688928 17.137834149896527 17.24196567486176 17.34508110259318 17.423027842893664 17.457100517025573 17.441028972449352 17.383911977555535 17.307147852346553 17.236529162712483 17.192981672678332 17.1856415262853 17.209429332285783 17.247366052492335 17.276614755287316 17.276607147890285 17.23708871915482 17.163427662756632 17.07673744767024 17.007885298668427 16.987001638702342 17.03237832967621 17.143219999197115 17.29910130254345 17.466036763250386 17.606401594432427 17.688829282437908 17.694884094222992 17.62107687820016 17.476692183391464 17.27918559798338 17.0492510678309 16.807111202410695 16.570575110912568 16.35453440645698 16.171229545256438 16.030751498510362 15.941452681613796 15.909960492408915 15.940476790909488 16.03335190843408 16.183546440609824 16.3800371306184 16.606943444335062 16.846196241397404 17.08065578634366 17.296459703739757 17.484074022821183 17.638312327166204 17.757784302961674 17.843922402123482 17.89961730592182 17.92793463176191 17.93182281014605 17.91527696123584 17.88510040105728 17.851385937218758 17.82534901693723 17.815074571279357 17.821572380836674 17.837720204574897 17.85103683890061 17.84904225152235 17.824720338659592 17.779799073029334 17.724633571856412 17.674663872474376 17.64448050349953 17.64153259016981 17.662159739762867 17.692183700069165 17.712397501281803 17.70674712450522 17.669458668949343 17.607955520254485 17.540712206933915 17.491553108365252 17.482841998595 17.529388845474237 17.633868552451435 17.78430070253934 17.954703677790103 18.110233521814216 18.216808908366108 18.25262192443354 18.21673086307146 18.130081597619494 18.027434756023023 17.943323530567213 17.898526439667304 17.893364166601653 17.91042659670826 17.924435877819835 17.9138105161797 17.868633637006486 17.79244452221454 17.69854073131722 17.60352824824629 17.52114692674995 17.458469251233225 17.41525356254592 17.38604443720627 17.36374858312905 17.3430507528644 17.322375132681316 17.304046027033223 17.29324959132326 17.296636317951275 17.32086370634095 17.370807513495304 17.447357002495156 17.545568177382034 17.654546344976573 17.759950339145934 17.848580485623952 17.913078443346837 17.954317472167823 17.97996854260241 17.999616208856036 18.018773371699186 18.035121292600092 18.03946439350518 18.021315786502424 17.976056916011377 17.909273066011842 17.83538359835563 17.771239108717527 17.72844738694619 17.708616579449302 17.70341817669125 17.698400448250673 17.678010519661598 17.629834965118743 17.547469213779905 17.43225243440034 17.293954770064886 17.149994045649358 17.022663593395816 16.93442295445012 16.902237388537834 16.932731259853767 17.020074291435265 17.147757492971166 17.293820022701954 17.437345227588004 17.563283782361534 17.663659358089838 17.73551065360691 17.777906841777295 17.79053697594883 17.774676801142157 17.735248698470542 17.681858965963254 17.62756222134637 17.585737353139198 17.566573003989358 17.574670477175733 17.608515674027643 17.661733314122266 17.725518447213407 17.7914159533841 17.853522791406913 17.909246363010958 17.958200718323994 17.9997513864533 18.03070257217952 18.04484041366461 18.03501735393839 17.99669087288242 17.9306088037246 17.842712704884267 17.74118324794676 17.632589321955333 17.519815063703934 17.40322852072311 17.28424663210507 17.168739770440524 17.06786877696802 16.99575801031679 16.965409046266217 16.98500037634822 17.05595174065779 17.172816658280716 17.32431621789965 17.494924281648778 17.666806199451038 17.821999827201278 17.94450091605258 18.021820755143366 18.045891407332505 18.01363447389762 17.92757118475472 17.79637572507735 17.634693558655414 17.461507053530916 17.297053841985786 17.15929995804296 17.061383014702123 17.010782139282682 17.00966329614199 17.216247351251205 1