# vtk DataFile Version 2.0
Really cool data
ASCII
DATASET STRUCTURED_POINTS
DIMENSIONS 200 200 1
ORIGIN 0 0 0
SPACING 1 1 1
POINT_DATA 40000
SCALARS temperature double 1
LOOKUP_TABLE default
18.668588050943793 18.218767831824305 17.7477532758106 17.299701031758676 16.859346293331786 16.38834292446254 15.90329016252613 15.503036292509004 15.305457162967102 15.3611381217178 15.635982405110203 16.06216835575705 16.572321922851344 17.077210442334952 17.449289430555336 17.575538937287174 17.438162253947485 17.130492195747035 16.78925371269288 16.514743624113528 16.35117333084627 16.31806731988191 16.428253533068528 16.669097423807603 16.9818830120154 17.26983447231768 17.43795905327518 17.451264703556685 17.367181740955896 17.29222724335273 17.285993825226523 17.308925151058034 17.269194462634246 17.112068546383234 16.85923410436675 16.581794213715753 16.361236152928903 16.272417878848927 16.37182749565281 16.67343096466613 17.12592121431781 17.62109382314894 18.03734022932692 18.28211800473133 18.305833323871557 18.103438372843115 17.719799387818387 17.238399335083656 16.745817539996516 16.308456108561696 15.982708784377143 15.826481893708252 15.878103970875959 16.118212784024443 16.46036767804817 16.790223032842846 17.021201410433275 17.121916215628815 17.108354801323213 17.023275727739712 16.916025848150383 16.822172371910273 16.753064986783812 16.70977564398348 16.70842782156871 16.78225001766303 16.950426993443916 17.18495768045927 17.41386100207613 17.563827597683684 17.604606563427716 17.56142547482989 17.49432341119885 17.46111332847744 17.48346356937621 17.541657510614115 17.605791178751648 17.673024718324662 17.776025926710947 17.95752618841497 18.2325816789085 18.56737608395451 18.89405330850428 19.150835872425034 19.310578305434163 19.38276652875734 19.401953669871357 19.407640613781787 19.41506520809096 19.395331129519437 19.288920360489637 19.045915510327355 18.660082525470127 18.181596551860398 17.70933037182842 17.35563930328743 17.19093966723644 17.214815945440385 17.384534078454266 17.65822593625763 17.997576704009454 18.34498555843007 18.627389036244832 18.798464499942646 18.87195522977769 18.894266205552317 18.877463578851735 18.77218570334616 18.518827097872144 18.125300504381094 17.68656510947855 17.322034044552893 17.09161032394866 16.970113262583073 16.897601950693552 16.846614865746705 16.841815849744854 16.93151070294415 17.152449352072402 17.511264112406728 17.978360102296776 18.48515966436784 18.926995093131765 19.18637864202155 19.18763803601378 18.95312231181618 18.600506431460218 18.27099405375938 18.05326030032477 17.964711652669955 17.983750739804403 18.07622792050886 18.189032954338572 18.246854490749932 18.18301032121482 17.979075634420482 17.670762636138324 17.321262530201018 16.99592792057551 16.74750416529099 16.598524464125333 16.53149981236127 16.504709671044424 16.483157096661728 16.464992141942922 16.489908921621126 16.622827309435998 16.917744582264458 17.379232521120088 17.938856333435393 18.4673071350596 18.834115305995383 18.97771418265265 18.919524630722226 18.71457957620962 18.400532390297478 17.99328790888152 17.52046975360035 17.048195041841172 16.666898224406733 16.445082272896556 16.392604260602354 16.46748057840399 16.617475488748962 16.81216501636479 17.037433078411535 17.270588702613782 17.469062574411186 17.58297937961903 17.584781333891346 17.497998220204686 17.398070141339897 17.371689940990628 17.4569288612405 17.612904164432084 17.748118193555985 17.78158934494655 17.68520432702463 17.482151402092892 17.2139008733681 16.91025510814424 16.589522818337215 16.280931850111234 16.03288135492367 15.893361707095329 15.890470138990732 16.03473587127325 16.329524989555974 16.768656708594563 17.323882769732958 17.936975104592484 18.524610257091386 18.99979024583168 19.306296435660954 19.446689113837174 19.47579809446472 19.45306194499772 19.393937556999763 19.267051691700956 19.029902253277704 18.100197996235174 17.722065749588964 17.338965734964667 16.988533300539938 16.652902449038987 16.288999888334153 15.902890546250264 15.579897949625451 15.428431995822665 15.500789169736395 15.776916997725579 16.208205714277604 16.74135246462884 17.289736020015443 17.71796117489058 17.90196050526777 17.817260483548253 17.556027390939622 17.255906038104317 17.018265558706197 16.888468020357422 16.885323027095477 17.015499806371256 17.255058800958274 17.53435217053918 17.752378250473527 17.821147655079006 17.725074908101938 17.546009596605934 17.404598675993345 17.35496007413942 17.340327047957867 17.25725157918172 17.055491257219416 16.774121068511768 16.50117625645472 16.320080975798593 16.28796780149757 16.434436446994138 16.755778768717583 17.203300870982353 17.685923381157487 18.09646089818152 18.341405320158472 18.357649960084967 18.126667362412366 17.689519754117335 17.138387537880753 16.578835979131316 16.099512968754595 15.773575032189209 15.66449944461969 15.803925303978989 16.15782195934364 16.624743006405737 17.07756835685788 17.413427737262076 17.57820038585642 17.568318402364177 17.424819789348707 17.218160145136014 17.018493873601177 16.868550111275773 16.782808840831745 16.766943139641125 16.8277356026989 16.962686804456485 17.14675356176355 17.333035184707725 17.468079037531172 17.514036528607697 17.470117768348043 17.37883039073947 17.30257217854596 17.2821797445509 17.317335355804936 17.387238075178548 17.486066638407575 17.641171654245827 17.899294529855815 18.28510196286133 18.760731907634216 19.22702215539024 19.57223234720865 19.72729670965447 19.694350992158363 19.542667663369173 19.371209610613363 19.24917918249031 19.17189308175662 19.068408427461186 18.85654194908698 18.50193546473496 18.046110787483656 17.59403482167046 17.264773959283502 17.128188084350544 17.17656951145166 17.35707821227474 17.619895429587867 17.92485686686898 18.218121881979716 18.432110140878585 18.525396423291237 18.51727354765706 18.463145735344238 18.388908736983993 18.260997981395253 18.0300288230813 17.70211496985196 17.361161403319674 17.11583458218153 17.019493999592985 17.038416731946043 17.096942928942724 17.14883137812005 17.205381948526725 17.313593556544582 17.522055550466593 17.85393477789816 18.287456557069195 18.748899283776407 19.125670120390517 19.302649159536927 19.21937472611636 18.91768863161063 18.52793809272859 18.19189798580338 17.991992680138416 17.94285491819829 18.02429544475158 18.19573224751588 18.38068391985095 18.470900980316838 18.376825252156323 18.083686719553395 17.65755939050438 17.20191822907297 16.811091257953144 16.54493302462143 16.41679837486695 16.39657288788113 16.432868284724453 16.48084969959955 16.524558114354146 16.58689417939721 16.717932259505467 16.96373022078514 17.33376351714127 17.77986153565978 18.202018462273383 18.497428135228418 18.623456796300527 18.609400605418454 18.50534924489945 18.328928804670056 18.063721188139734 17.704550239736708 17.29725620504859 16.9274041145039 16.668578950599382 16.542410972723765 16.52625730369847 16.59150526129253 16.725657637383275 16.919402225303354 17.143994020057978 17.34663706915377 17.465635347143742 17.45956895216761 17.340125471380833 17.18219109400682 17.087025368277818 17.11265474630159 17.23086771076431 17.355301338522985 17.409699934000002 17.369511808400947 17.251809353298228 17.079801460055194 16.862838178793314 16.609548086251472 16.35257804756599 16.14666730792233 16.03899905294911 16.05046239560132 16.185201200442762 16.445507810265784 16.82984180124104 17.319727808907984 17.868999659923315 18.40131504573862 18.82530854673483 19.071741375513614 19.132491358472485 19.064610219468566 18.94441573270288 18.81016512190916 18.647024662517396 18.41686168547674 17.461440736847653 17.229272485530394 17.01923568749511 16.848144777951507 16.68045285222769 16.457308390908274 16.17046049349276 15.89672310320965 15.747397387440499 15.790432012702324 16.02821057875819 16.43232404359042 16.962740616199362 17.538688554807273 18.021351198242492 18.271698781289885 18.24339982190717 18.012400075363626 17.71760450602232 17.479309515508906 17.364901253584126 17.39930461277998 17.57262148259709 17.834038328783045 18.095949476730826 18.25738753994581 18.24420396581147 18.05863615656223 17.795208979880307 17.578054199985786 17.459792866929572 17.385338590803407 17.258410834721534 17.03588560370156 16.758689244916365 16.51070782756465 16.364720962705192 16.359828633090377 16.50542945215891 16.788081627712756 17.16984752304034 17.58670098443447 17.9570219788971 18.195244566503277 18.229018509913804 18.026711004671725 17.62240106315213 17.10719079675114 16.587093486001898 16.150726731347905 15.872360685654902 15.818636169969285 16.023107178761695 16.44939883962244 16.991197380716116 17.515190784404975 17.907872341014972 18.099831946856344 18.07545362558361 17.87670191595225 17.591329203996203 17.31719235904582 17.120821951480945 17.02084475405662 17.002862917106476 17.043403457112348 17.124626824149036 17.23727075186926 17.36986789237306 17.490242461823115 17.545517961166045 17.49736242216892 17.361773473517836 17.205555609041937 17.09909350484995 17.075981517965698 17.13295966770585 17.258980952529555 17.46607485578014 17.79271556316017 18.26429831736512 18.838833221753244 19.39575967899207 19.787440024448692 19.91286562366416 19.76874629574837 19.454437981989713 19.120966583305258 18.885274202542348 18.765338815694758 18.683932039276502 18.53657989168772 18.26869827285488 17.911056628600996 17.560936864208255 17.325219430877816 17.258781531319876 17.342410406867987 17.51755616681044 17.733941127563348 17.957115284671104 18.145403362729212 18.246757725531243 18.233727245200168 18.134694501364105 18.01062376240274 17.894615016239307 17.76492054984214 17.583670216628096 17.35784585463409 17.15692712037252 17.067261591482787 17.122617651077146 17.27500577740079 17.43738985137398 17.55547994977525 17.638739463073335 17.740421965778687 17.922173273631515 18.22030354100565 18.6168110376644 19.029718370228547 19.335878057758613 19.422318344474206 19.249014002938686 18.885566262210567 18.478862141135835 18.165931332795665 18.010360207675394 18.01015051669497 18.137836231343886 18.34824293158542 18.55595057775509 18.641863891935174 18.511636855757377 18.15732243923476 17.662307109932524 17.15017205543525 16.72897012331629 16.46240699168297 16.36170276864007 16.39297707354933 16.498135996028886 16.61918636138962 16.722445167108187 16.815513147143328 16.938864570325094 17.132644517079093 17.405924902257222 17.723473618991637 18.014619380098438 18.213680900090377 18.308319785688752 18.340478271234993 18.352489319286196 18.337473663807202 18.245135958809637 18.03614770883477 17.72964893176914 17.395771125081154 17.105187262629407 16.890216162920286 16.751581579063192 16.689951153961218 16.717396834451566 16.837528695384638 17.024247864162145 17.222317758577354 17.3632101124901 17.3904288996188 17.29351345834784 17.129147546894593 16.995181111011384 16.95989614875512 17.010818853290864 17.079727547463914 17.11051452961853 17.09313303085701 17.042847065096712 16.964849795684643 16.84696493316372 16.685559162111417 16.511702212357335 16.380476277221995 16.333295266707946 16.379414673138253 16.511838720423288 16.729201382740747 17.037436385783536 17.43426007296162 17.88935248615115 18.331094284613265 18.659121570164217 18.7913980822279 18.717435036896266 18.508504220872467 18.266037977266723 18.052557924275323 17.868000242128883 17.678675800740095 16.812758583178688 16.764736802109706 16.78176415478273 16.84946402638923 16.900169948200876 16.8474469691704 16.66374996179624 16.420289397426345 16.240555184183616 16.21856974147222 16.38399104436692 16.72664508561307 17.21762458680134 17.78637348227484 18.298952085798955 18.603464520724344 18.622449822639517 18.402876106240736 18.081814345444812 17.808964430346016 17.68827350061854 17.75691755656126 17.983587701703133 18.28271674943813 18.546198416143543 18.676315405655654 18.61453357775988 18.373928702305097 18.047671765759066 17.754049399314404 17.549842130083377 17.39907582369044 17.22752923121415 16.99988867163445 16.746132787446978 16.530232406766437 16.405821403730688 16.395341038905308 16.49535031202328 16.691151038995713 16.963292336886425 17.28249988939435 17.60035383098915 17.84489472399638 17.936679989846343 17.829647717377156 17.54560190209249 17.16312420120492 16.770770881846722 16.43824835812854 16.229569575455532 16.214897142462497 16.438816467050703 16.87381790144232 17.41707303853538 17.935223744416785 18.31349905114119 18.482644578179134 18.430163674852942 18.20281582635586 17.894192308905417 17.610176673850155 17.423424601428827 17.346164382043778 17.341145466152796 17.35887917653436 17.374734742749943 17.403304715379043 17.473101515863924 17.57537885570233 17.643667242321072 17.601132463876656 17.431734118445537 17.199017469552192 16.998918542062032 16.900974559999998 16.924365576046135 17.056361732161303 17.293300372564694 17.66066774546007 18.179165737723746 18.803470489267237 19.402144529035294 19.807236875764303 19.896994476029782 19.662649983137847 19.222671566848874 18.7649488881199 18.44322154832934 18.29706374074818 18.251994688439385 18.19426041609489 18.055939629744813 17.85104481372578 17.653331713696986 17.5423456849025 17.552792628385845 17.66024572471142 17.811545851752264 17.963264259067284 18.087615134347143 18.154270440358616 18.129417664656188 18.005343456276606 17.822970667146258 17.646063539998625 17.507361549832012 17.3897114539607 17.264829983616952 17.143914813669575 17.084459770751668 17.146798845410956 17.338153364346713 17.593756641362717 17.820707651823035 17.96663583691378 18.04744846742824 18.125111747173655 18.270691244855243 18.52789900550346 18.879556199266176 19.236051741958565 19.465536691266554 19.459945510266316 19.204530267183113 18.800948005168134 18.410901579533206 18.157228291475295 18.07144226933988 18.123620358770836 18.27444799304022 18.479818588720068 18.662005421363965 18.713332673528743 18.550895149140302 18.17309582315677 17.66382195798144 17.14551487101138 16.727415116193395 16.477922952539895 16.414919178271074 16.507711340282544 16.690954719795283 16.88805797480065 17.044570269408013 17.156869173166875 17.264771850908545 17.408537760610155 17.59357393629119 17.78754985175203 17.941712133393896 18.027997903876255 18.068932936854434 18.121849265280733 18.222601274514314 18.344821205980917 18.414372799740917 18.36599411165076 18.190815573823784 17.933355327647465 17.649828752114228 17.375806911829944 17.131821581166044 16.946581764922456 16.858331233139968 16.887999667493244 17.017130398369407 17.19262497074146 17.344948929886524 17.409943307101802 17.359805527796965 17.22936376528422 17.099732908690424 17.032994205677852 17.02186269051054 17.01524764046522 16.983569840159447 16.941878402096577 16.915969071277836 16.903837254502225 16.87683789643604 16.816134945978146 16.742580427879492 16.703050615050383 16.72909926627546 16.817678324676773 16.950177915407927 17.121353569099018 17.346563622942462 17.642134678253836 17.992329916650636 18.325651374594276 18.530619083387354 18.51710343251801 18.28122839751695 17.91492079755598 17.544584978050185 17.252442709326985 17.049901681716616 16.909979518874803 16.267232466358728 16.386414867696107 16.62325799410938 16.93203526195239 17.207253754895962 17.32911112994458 17.247719318131313 17.02799323163504 16.806620874441844 16.704979568957295 16.77897832331406 17.032978989399886 17.44701769449472 17.96502070694147 18.467890703152232 18.799361885991644 18.851098991318576 18.633754689792916 18.274589937348747 17.950142733393797 17.804044835689048 17.891032658097707 18.16343841363334 18.505118921731626 18.790198969790577 18.924120181461486 18.85892368308348 18.607555554889068 18.248890277290545 17.888859391969646 17.593266859155133 17.35675509271914 17.135591571135794 16.902638247417652 16.671839648803925 16.48200397351878 16.365340152307446 16.32880957758767 16.36004531416218 16.448167092143393 16.596627728983734 16.813897549440096 17.086743377837944 17.358593075421243 17.54446560709574 17.58345373969902 17.480328243858672 17.291530537554863 17.076093432569856 16.87449303913644 16.735206819767583 16.732179411425854 16.92503406420049 17.300338255484732 17.763840979774404 18.189394914357862 18.474962756426233 18.571986506801093 18.48872488262979 18.279144916603258 18.025847477077967 17.815311056697524 17.702934119977485 17.685131438857983 17.70642386563248 17.702541668086155 17.650804398240922 17.591339336855302 17.590861406057215 17.66695700035837 17.749617090311013 17.732926024815264 17.567574228605892 17.300482519583092 17.0359722112758 16.86864613934702 16.839886465529627 16.942662127051648 17.16551917161422 17.524487499507476 18.036667793422207 18.658006158746517 19.256943871686566 19.658171629456625 19.726670890885835 19.444377827677727 18.934661623773255 18.40545044709948 18.036655942227625 17.888814819688744 17.897033165844217 17.94566918487391 17.95443067225617 17.913646097469268 17.86427890366165 17.854658083788472 17.904828225140854 17.998178780305132 18.10073532238309 18.182982052017163 18.221777756520524 18.191356633370148 18.070508595798152 17.86863438674377 17.637206772437384 17.43868681124523 17.298764928868955 17.197828537069398 17.114157436523502 17.067060654759093 17.1098411010289 17.282436721436735 17.56728117260647 17.88436642734857 18.138739450143618 18.28370322755206 18.341778546150852 18.379694687025836 18.472546154214147 18.66889720706625 18.955349188193697 19.241273611212755 19.392147231624094 19.308025894601382 18.99967062375952 18.596982261887195 18.267607177015474 18.108700110581562 18.11039296938427 18.21082456140401 18.36095766878009 18.526199219276386 18.650453301110694 18.65275620839434 18.470325416277838 18.103507893452107 17.62169609719652 17.131156606521763 16.736167532067135 16.51314913784067 16.49349335691099 16.653605027017907 16.919702146021503 17.19314374572109 17.39759526371446 17.52191392252823 17.612638320855044 17.716583743408354 17.835272316739648 17.931018381747748 17.965732884720918 17.940310932070563 17.90729910632656 17.938110098602962 18.066733049957566 18.26057713226639 18.44076165052695 18.532040626068554 18.502414658718113 18.36449177558933 18.14851841800905 17.88188743372285 17.59524727226428 17.338045248643216 17.170900029200375 17.130898801497626 17.20586516567481 17.343356593872144 17.476304959003325 17.54537613551081 17.522725351625283 17.432315824229157 17.335202121664093 17.272648617001007 17.226351722876046 17.150918767096908 17.038307298193377 16.931843702368173 16.87994653188666 16.88942474589792 16.926162771108785 16.956813595255177 16.984727146286996 17.040436817732505 17.14224324873267 17.27585710013535 17.412731939818478 17.54376072356125 17.69222176851646 17.89015447648797 18.13296001666685 18.349177559386074 18.422970184337913 18.26661164491159 17.888558145893672 17.396903363343167 16.931245377743437 16.58190396632811 16.365757546935004 16.263844838357823 15.960340292492726 16.179469472766282 16.563035442630166 17.04544000571983 17.490634753954705 17.749822625415383 17.752117280113193 17.55293231128161 17.295234949434295 17.12012756838953 17.103285179707303 17.258053102466768 17.569377405992537 17.996368022260288 18.44315654787241 18.76302178221908 18.82816928155325 18.613774261550464 18.226452234075666 17.85454991244084 17.6727783507578 17.757218974997752 18.057342003855574 18.44023669038948 18.76785786296982 18.94486686893596 18.924597646694753 18.709674672835373 18.356666823539864 17.95568303548998 17.582794234851587 17.266101116182103 16.993623941510453 16.746773478270196 16.525737358823967 16.34837419490258 16.228939600020873 16.16071684321703 16.124133890102303 16.11400478658419 16.156233950828117 16.292670182514023 16.539539225732188 16.853435021757278 17.1465533683367 17.346385584454104 17.43976526571472 17.45702708317887 17.424981126927754 17.35461694185219 17.27807048315011 17.269281519146528 17.397571460272893 17.660306120450016 17.973931311206247 18.22966263517175 18.356539932046836 18.34759882703287 18.245017030852644 18.107151422662668 17.98618879638172 17.921579128786995 17.929746445718713 17.986713325254282 18.031194322222845 18.001976615513723 17.887877350442633 17.750824024628567 17.686350493847016 17.73641984863476 17.83771312475766 17.868631203247244 17.749919513203416 17.500482527269202 17.21384498410363 16.994458268906484 16.90240515700401 16.94306562254682 17.106307094133022 17.40488945711359 17.857150345186874 18.427691813095088 18.995102505819165 19.386229538604372 19.456483971004545 19.172970188381825 18.650930540831006 18.104702381364135 17.732354688755496 17.613518902729552 17.693185873270828 17.851980312788353 17.992654961366263 18.078667620809547 18.121146636924212 18.14670905427649 18.173190620730598 18.20365258170599 18.23261847830519 18.24941983769614 18.234369949057143 18.15904431649933 18.0038572895587 17.784132639975105 17.553854096722723 17.370332694182906 17.2503486680484 17.169153753979582 17.108775445281363 17.097434302708347 17.19045698512657 17.416541013876618 17.7420014054679 18.078060297421228 18.330526496409178 18.455803096596394 18.476016306621165 18.45554195928095 18.47065629013749 18.578120264217493 18.77671807259591 18.984458100411732 19.070456889261912 18.942626984020254 18.62960077283825 18.27672706065568 18.044656963347173 17.997496250650464 18.084544435870015 18.217876222736283 18.346091250837365 18.451244605388727 18.5053604164885 18.458787775816994 18.26918616545532 17.933765497488 17.49973458913222 17.0517736613417 16.68809745104381 16.494468018536825 16.517050118631413 16.73993792678758 17.08161043314756 17.422823630557478 17.66734720764578 17.79875630934238 17.87363134557163 17.950055509490095 18.02880923432388 18.06385792313812 18.017370975202454 17.904745334700365 17.795605361865558 17.76943031094977 17.862775081671593 18.051309100925447 18.27094238958032 18.45377682076367 18.554453742185274 18.554897972725445 18.454382002497713 18.26368941858935 18.01349889172317 17.763789250920727 17.588624310692907 17.53322869491545 17.5831478802822 17.679213428340347 17.757197135753056 17.776091322769485 17.730777396714483 17.6538740422667 17.59203409480296 17.557835631932075 17.508325753586867 17.389901456237805 17.203913187902543 17.015666036089467 16.90039984116394 16.886784655275424 16.94899822188459 17.04616953807519 17.163030651460684 17.308870620767767 17.48539714846721 17.667344144018237 17.818172960764024 17.924773190909 18.013607186051072 18.12471164718473 18.26039423778116 18.355475677675997 18.305923251741397 18.04163851865483 17.585116185329248 17.04638294622471 16.55724669118082 16.199239783736232 15.985858855480755 15.904134904403678 15.978223074013497 16.209110809203768 16.62867305360241 17.169653486229294 17.683413865353717 18.006200123296733 18.05276180907163 17.86606541181101 17.58473506032535 17.35691414786359 17.267969327233452 17.332635333037146 17.53361683637808 17.84060052649031 18.185210898415423 18.44622674543564 18.49647184175795 18.285624423970265 17.891053948449482 17.491911501349566 17.277136109065694 17.34416111608226 17.654711609691297 18.075676465133384 18.462696129400307 18.714394191830525 18.77724630592834 18.639138379231817 18.333581263547224 17.933749067428046 17.521671734445842 17.15217194601976 16.839423622453744 16.573014275793216 16.345502505303855 16.16296797619117 16.029248504676232 15.929046967286949 15.839770758539968 15.763663190289297 15.743783371950043 15.841909049184748 16.088910085607342 16.448165307806875 16.83372740073212 17.17015478873875 17.43184240233381 17.626395326136446 17.754007787239814 17.8024677214133 17.7878212762402 17.775316377192926 17.831371755051176 17.955793185364417 18.07717943195976 18.11623266854166 18.050956302687094 17.930194413925054 17.83273713361851 17.81149081380407 17.8702029194521 17.981781949344214 18.11157911058392 18.2186647034603 18.254478100358572 18.182742945806375 18.014380664208545 17.82656731503279 17.727433803282526 17.771858732808585 17.90477522722185 17.998764010065084 17.951607624015352 17.75170770792289 17.471872554249433 17.216277517583798 17.059796577291564 17.022921113930998 17.10160594232275 17.30906767849283 17.668618951946442 18.159072649530025 18.676201394234333 19.05548859315199 19.145665451838603 18.89570508193501 18.404196604705273 17.882819574597015 17.541729149363825 17.47569906404877 17.634789730297086 17.889227722381197 18.119696764332996 18.265102565626133 18.31879503187425 18.302407576031282 18.24455656684361 18.173317587962654 18.112591079953916 18.07165549690845 18.03547713827384 17.969775794351733 17.84579057167112 17.669668674913424 17.486802091056095 17.3475123340369 17.26414882601021 17.21025750345703 17.16982150748745 17.175503005968434 17.283581857058465 17.517288367716784 17.837493784276585 18.156678887102053 18.385039545384117 18.477529691153787 18.44769396389601 18.352677198962223 18.27146028425108 18.275057509042114 18.38165729376494 18.523918288181974 18.577115444734623 18.452593620709546 18.18386695711727 17.915111562019167 17.789435960076922 17.839881943905443 17.986776977061112 18.12905515613148 18.220453204587816 18.261214468321846 18.24906785054229 18.161160240174233 17.97133612468776 17.67231711313285 17.29111308108705 16.893258063346504 16.57001539381327 16.41148681448331 16.47285275371308 16.743899572985814 17.138935326400567 17.525065764682587 17.79207637661793 17.920300466316416 17.976417430676523 18.032116790099966 18.092475258738183 18.10522041585159 18.0259543029362 17.869334929608808 17.70585048266832 17.61408701801871 17.63443616669732 17.759622552714802 17.952341593143895 18.164577161740485 18.349452465895563 18.46773873139098 18.492672853647868 18.41727680424878 18.26531424840483 18.096586602550282 17.986671304804677 17.977263966014803 18.040697461078427 18.102640001503595 18.100320417056572 18.02069157485898 17.899703868269924 17.79670412075586 17.75328034688907 17.75291984915113 17.722282509459326 17.591103601613057 17.358856415677582 17.10131356936606 16.91469831026552 16.852904297160045 16.908470858357393 17.043319450561 17.228902325870212 17.4532033730348 17.699435332889102 17.931523524452324 18.10756142717936 18.210970565465345 18.26494487529898 18.306408662166714 18.33919487012582 18.313520631291645 18.157351914993594 17.83486741745965 17.382497970705405 16.89507567654506 16.473579717207656 16.17281350719509 15.99275650823839 15.921156023682967 16.31068609638666 16.483604464788804 16.83731142898454 17.31935731478322 17.78951153847571 18.088135062477374 18.127104782480814 17.937736321175194 17.64520458564276 17.39099132432694 17.258274041261014 17.254764280749725 17.353140508760763 17.526358418239067 17.7329401371974 17.889511676158467 17.89104989683088 17.678056346656938 17.296694588748984 16.898082286940703 16.66533701204269 16.7114152909691 17.020129617063695 17.471953847178636 17.9223170680075 18.261402917028732 18.425690962446964 18.390360554209725 18.17052271247613 17.822007436742098 17.423458643776623 17.04272652764714 16.71061858915931 16.424475139294174 16.176296407927587 15.969812137149342 15.807102722143236 15.672916872235412 15.550071641644855 15.451360303390592 15.428245800041516 15.542104404336705 15.817181875290343 16.214501183607634 16.656300843283876 17.077827362945897 17.45291332210569 17.775298302748997 18.02705953360798 18.17921533364251 18.23056584507476 18.22782627879369 18.222491684953837 18.21065812435458 18.136069540129363 17.958432917806984 17.713740405434773 17.507439398204294 17.44536051740591 17.560677079862135 17.79735984387872 18.057103216662437 18.257348062609783 18.352493157591397 18.32617944597978 18.185654089749097 17.971778855711523 17.76947663429121 17.681063870673853 17.756184576375357 17.940054400984277 18.103075731349758 18.129118354005918 17.983363896531554 17.719791230443594 17.43934131774048 17.227392644069663 17.117240444106002 17.111314341487756 17.22504384861048 17.488113672283834 17.894003573476546 18.35653554334199 18.722756387408435 18.838664314502722 18.636695243600148 18.19634998352783 17.721697662956196 17.429499056772812 17.42421303811241 17.655463186876418 17.978316118801278 18.24992679400082 18.38979247217178 18.385791066364124 18.26914757637199 18.088332134689203 17.89623923841368 17.741017633925306 17.649495925571966 17.613755680923802 17.59532358645167 17.550331852010803 17.46308599876471 17.359805554580326 17.28260954987091 17.246024647438915 17.22859013354699 17.21639509367326 17.240169698087506 17.350891147499333 17.56683769131478 17.851156542770603 18.127033789891623 18.313906641899113 18.36403938820185 18.27949086424869 18.110364142166286 17.94123934914804 17.85900011426284 17.899748680219076 18.008427965140275 18.064633540006213 17.978403887734515 17.777285452700593 17.592392172038227 17.546926064708828 17.654433607118136 17.82430913469172 17.95488804114102 18.00682345144078 17.992817775639754 17.927941491913643 17.808308334477413 17.62053303808523 17.35715916001943 17.033943878173297 16.70201533493413 16.440398360406007 16.331252783025864 16.428070597104767 16.724013590964606 17.136221403901764 17.53005384550769 17.79117206503785 17.899573552893127 17.929611733309006 17.96546781649083 18.020353668003732 18.03998646952831 17.970410069774776 17.813953582233758 17.628385651233007 17.48314579619291 17.420848862277168 17.45288624725498 17.571475615281866 17.754137014067208 17.96333769103951 18.152910968529152 18.281648564796715 18.32836206267703 18.304619299853037 18.25944129858306 18.25862945627019 18.33177432435074 18.433228388675516 18.471364680300994 18.38401951291894 18.18713408654729 17.96204858450623 17.801922359182225 17.75071894458926 17.768955092489897 17.757328246148088 17.630397242203184 17.381764702113543 17.08762990612851 16.853035399959175 16.749287363673613 16.787943588860898 16.941033011503123 17.175078140868155 17.462018438226284 17.768822932688494 18.050708502689933 18.263403684016218 18.386899259026364 18.433767132218485 18.426201416110246 18.364197581975215 18.22142038239727 17.974662101169653 17.63551219466833 17.25459945412423 16.89973808263689 16.624905569996763 16.44480146292124 16.337024831406605 16.283025043527914 16.864103758138217 16.