# vtk DataFile Version 2.0
Really cool data
ASCII
DATASET STRUCTURED_POINTS
DIMENSIONS 200 200 1
ORIGIN 0 0 0
SPACING 1 1 1
POINT_DATA 40000
SCALARS temperature double 1
LOOKUP_TABLE default
18.613116043936703 18.20336537404485 17.766598663915307 17.335203977108748 16.901313559093275 16.445088000045075 15.989418521396196 15.617446695921839 15.426357786832082 15.463815968830836 15.710091444934369 16.10793991152239 16.587023676219786 17.056502434279633 17.40290548833415 17.53155201740905 17.424654311851018 17.15482442910556 16.837980559563377 16.572000468337215 16.412336442471627 16.38441755705297 16.494695739266042 16.722313385738428 17.009376670985645 17.271017309024142 17.42942450693002 17.457873701804985 17.400365746279764 17.33662300558816 17.313053232022522 17.305081673708813 17.247757315994708 17.09864910558242 16.871255156241713 16.622663650584222 16.425801191287395 16.350043180732634 16.445043177052405 16.719767783840172 17.12716467541851 17.573247773208784 17.951040430418306 18.17526448596944 18.19906258780891 18.019099262924193 17.67639387695801 17.243243755406287 16.796186935911805 16.398659027099352 16.105400872712295 15.967242269478277 16.013948839369803 16.22653747463219 16.531617785629855 16.831585671331183 17.04843970226705 17.149124065792613 17.143726174692702 17.06924895194989 16.970286188545487 16.880981664983405 16.81661137103035 16.782806367399953 16.792680598175842 16.8687318579853 17.02187217207803 17.228147900918874 17.430411978668275 17.568655207592876 17.61442982661311 17.58383820657634 17.52399454355842 17.483946570035002 17.487497137434158 17.527338320031934 17.585618792701716 17.660920270740192 17.776120042820068 17.96061646740388 18.222083488822488 18.530898425593502 18.831417552958325 19.071519299288425 19.22600445692278 19.301396122554763 19.32662950540228 19.333849116381316 19.333859152996563 19.30184118285201 19.189258630796584 18.956214674003615 18.60080559114113 18.17031853945767 17.751195613646495 17.436925806454365 17.286044593857174 17.302306272744143 17.4536008861923 17.701430056380058 18.006157695900885 18.31591070823722 18.57199454366066 18.737935701887785 18.81979205628853 18.845282053013257 18.818375820307637 18.70298212175652 18.460644011089343 18.105021630331766 17.713690632741855 17.38116308790815 17.157100423750027 17.02702483569325 16.94830466187301 16.90038663443799 16.902787783701807 16.99601074902599 17.212349355004086 17.556757262573026 17.998810882681944 18.47086143071053 18.875010631768763 19.109096707705252 19.113456228990376 18.91131612518876 18.602236783097474 18.305707849450158 18.101548593395446 18.011515648410224 18.019067628645775 18.089784965398966 18.173248084771373 18.206073010595105 18.134797725521445 17.943591017725975 17.65990902494706 17.336871307327545 17.032246178834868 16.79267560196964 16.63919681079707 16.5606792498388 16.5255400808419 16.506423108603865 16.50295095127633 16.54917066857167 16.698991222767788 16.99445078290681 17.432617662597615 17.9489284541367 18.432504809722943 18.77498450463424 18.922032393916528 18.883880336533778 18.701126231288583 18.407463446802225 18.024609731614394 17.58458982194956 17.147311808352196 16.788828812400453 16.56674743896536 16.49294448938502 16.537932527842447 16.660583514191227 16.83246754592535 17.03633538016226 17.249305997881113 17.434125491004462 17.548954103282302 17.57088380565258 17.517788063767853 17.448027358065133 17.428906338044353 17.4913182494216 17.606288999119315 17.704390596768555 17.72078073442964 17.628866006516734 17.44197685073386 17.191145375832726 16.90390952879312 16.60293904356432 16.31898569552963 16.095161976849024 15.97363526449143 15.98129630878576 16.129098138967432 16.41819728800648 16.839113410935674 17.363251727358296 17.936486908183277 18.48354122662903 18.92739786150497 19.219070319663654 19.359741138972847 19.393521732644732 19.369324794062948 19.3028788505709 19.17235280371461 18.945608253576985 18.064545375915472 17.721711984079853 17.371468864123173 17.038855776438826 16.710308816009338 16.358806500847447 15.996865775738904 15.696606029790294 15.548935465736383 15.60453537731313 15.855713396533966 16.260537277639376 16.759878695279873 17.265615665384182 17.659204373725398 17.837957828269893 17.77829481573156 17.550757249764068 17.271467189931947 17.03940652307443 16.91102192135012 16.91043556496491 17.03809291125998 17.26324772500596 17.518886339581627 17.71719797532307 17.787113519920883 17.7181016906409 17.573377788781603 17.444074216699093 17.373965266322493 17.32701648787942 17.230058791880474 17.043752045395888 16.7940427329184 16.549828902377623 16.384449344460418 16.353223142370442 16.485333113344 16.77640679574023 17.18126118847191 17.618739082057655 17.992907363377316 18.217997539815542 18.236513279397528 18.033678545771266 17.646729125811735 17.15497349374934 16.65085021054938 16.21677727382461 15.922441929863053 15.824452036872929 15.94789464493157 16.261741765564732 16.67853675092789 17.086933244225904 17.393317705491327 17.546715015142322 17.54358777422466 17.420915843704503 17.240008416425937 17.061902861167145 16.926561568036814 16.850584840811734 16.839844846017677 16.897831221672504 17.020239786265176 17.18530307360001 17.352968794151767 17.47664621761891 17.52272933577161 17.4890666094543 17.409486998839935 17.335385968479006 17.30472333499666 17.325681545636723 17.388840247281355 17.492837205563312 17.658762710678307 17.919160379153958 18.286115904670037 18.722476867167597 19.144551865940667 19.45919311456261 19.60802237249802 19.592488601923137 19.470068405230816 19.321612983632004 19.203075768257943 19.111634432183074 18.992445502366323 18.781843691121104 18.455013563423282 18.049133821282723 17.65191066090439 17.36070093227039 17.234176476986704 17.27139571988957 17.43273904514363 17.672787684209734 17.948664534774196 18.209612384080152 18.40090570393959 18.491617141979496 18.495156852753983 18.449361415394744 18.371055281381757 18.236995699886624 18.016304777960716 17.721091275622566 17.4203075022355 17.198891988133994 17.098762599883766 17.096321340144122 17.13549671305392 17.18065270122936 17.240742511161805 17.355245810896726 17.56519086958886 17.8874713970022 18.297605364217162 18.72516345133063 19.06777919831361 19.226414548725337 19.154252491591347 18.890784408860316 18.54657754520853 18.24281450235854 18.055344230796024 18.002932482033966 18.067276446614066 18.20575952364117 18.347933185843345 18.40454608370006 18.305015719777202 18.037107474243385 17.652536052230108 17.236987195492524 16.873222151592767 16.61653220458997 16.482711710460496 16.44978666826944 16.475096970768966 16.51968710012569 16.569563790639137 16.64449195184717 16.786837688578228 17.03372215975192 17.387805605036334 17.80178155725499 18.189291257710686 18.46607198702643 18.595184962252294 18.594199809707685 18.499006767523984 18.325720777467954 18.068934584812336 17.732967824959587 17.35895684946558 17.016423290201576 16.766316370265518 16.631371678324825 16.599420239693618 16.649230940851297 16.767319693941882 16.940986800858425 17.142620568956378 17.325763378997713 17.438101327133136 17.446413620284837 17.36172174020104 17.24406020017078 17.17177375879156 17.189377156937873 17.276642528554046 17.368243040837005 17.40318907028729 17.357775709758457 17.241394796398406 17.072199409647375 16.862311660266737 16.625504645484327 16.392458652045928 16.208907744919284 16.115695310785256 16.134457674763798 16.271744606878737 16.528822222117245 16.901314047871534 17.369173783237617 17.886807313345226 18.382359349573687 18.774158445492635 19.00358610572082 19.06518632202701 19.006498505342105 18.89071126995602 18.752307001599664 18.583928199256185 18.3588245987616 17.45829247260002 17.246017168162055 17.05399567983641 16.88875634909353 16.719258090962683 16.502616031854178 16.23789175614259 15.989628482177617 15.851161888011815 15.886287202672065 16.106357966648105 16.487406352883987 16.98281419932982 17.510052623988315 17.94776610195394 18.181288361468038 18.17006130566617 17.97205416976387 17.703758230246667 17.477413315766718 17.36501754581182 17.394922514356352 17.555523849503327 17.796053921737087 18.03515880108044 18.183873612395317 18.181136158016848 18.03042637103085 17.805915095002096 17.60342735238936 17.4675512647607 17.364235006925792 17.22537593293727 17.016993838963177 16.767088414198366 16.541386981505827 16.40356154286904 16.39307613446774 16.52261200978701 16.78076314533009 17.13171141652508 17.516013016430936 17.858149876737986 18.079453814089337 18.115952763340005 17.941983655493864 17.587448316363762 17.129207618181834 16.659824720344126 16.26282446146324 16.010141602474672 15.961369072636154 16.142874891046265 16.521337898089865 17.004322510945496 17.473751315596672 17.82662091325097 18.00075905394328 17.984884278828044 17.81792015146364 17.574818414076116 17.337273898289446 17.162427207727358 17.069543649258986 17.04978985809092 17.084951916824025 17.160134012774215 17.265257310236716 17.38572543735809 17.490698250191926 17.536957780006684 17.49584176505645 17.38085802733795 17.244785239359732 17.146267131652127 17.11886035120935 17.167978421524438 17.29141059863743 17.50146583515996 17.824844773878976 18.271914852872214 18.79867299704137 19.301206839475018 19.655937163062777 19.778796732045762 19.6675617803957 19.404567893578573 19.113705145979257 18.891700981289386 18.75715754594399 18.653047222835227 18.49878299322153 18.251235674261306 17.934718945213145 17.627205061293846 17.415313649248215 17.346568409094594 17.411739791031064 17.567067773064615 17.7668482655775 17.972356349913635 18.141896910535504 18.233027740153357 18.22690880605235 18.146204816057008 18.035685531936252 17.91980416342951 17.785060809724495 17.608768428123835 17.40294656166689 17.22532150156526 17.143130048030816 17.181175652456293 17.302139706114716 17.439090068311433 17.54887176838058 17.638254487335388 17.751293766266556 17.939060039858536 18.228597335812694 18.598881473627504 18.974736471717282 19.248167137214207 19.324252824982793 19.173421301266785 18.856951648258526 18.497953408560623 18.213796781547586 18.06560794311939 18.058142800843413 18.165324375320743 18.33913778454719 18.501333658625434 18.55394248096488 18.422628517759524 18.100805977487152 17.654567558495938 17.18698317909533 16.794083321815737 16.536732198487663 16.43001763460149 16.447541377960764 16.538426483971545 16.650657219298118 16.75444632559219 16.855868588082366 16.988398582930994 17.184832437257587 17.449765980640322 17.74873548884538 18.020484096593407 18.211612567828404 18.31067830605094 18.346518136985026 18.349307531226845 18.315155025469146 18.210287887363926 18.009571714591782 17.73005069874988 17.426484800932396 17.15633869556162 16.951059302304312 16.81798834928338 16.760446724610148 16.786117656912936 16.894253719923356 17.060071247902435 17.23421162938333 17.357235355962406 17.383704411037648 17.309106499532746 17.181392740629413 17.076446375937593 17.045432019843794 17.07952648558128 17.12758254404862 17.144376594113673 17.117864634155314 17.057519443693007 16.96927254793334 16.84874346095942 16.698147805501087 16.54376160793261 16.429011429136132 16.389105170847426 16.436520623683005 16.569560808417698 16.787385572183673 17.092151517262653 17.476539688271533 17.906788478020406 18.314611327705535 18.61249084133042 18.7336789699869 18.67210459492689 18.486753407681203 18.26078396630903 18.048970562234636 17.857766412508525 17.66580342920336 16.859709349289613 16.810556167340646 16.820092680281164 16.86872806986772 16.897335829911814 16.838279132936197 16.673292869227158 16.461396595257792 16.304946473277596 16.288223543594704 16.445563592380193 16.77079053007056 17.229485751877753 17.748140424360745 18.207955908775116 18.483290484580642 18.510167372304817 18.325238960491 18.042952817291464 17.795615420862354 17.680937047980755 17.736759970281476 17.93741560437326 18.20734941336466 18.44873064312592 18.572455072635275 18.527147518208288 18.324217143921018 18.038554215405632 17.76425892037295 17.550932447344255 17.379128798073694 17.19695690134246 16.976952069861724 16.740294021002377 16.537806048955662 16.416395878357577 16.399759414152214 16.48921818527733 16.67324037971547 16.932341202114753 17.235690229922326 17.53473642652191 17.76295868407618 17.85231343700753 17.765393669970962 17.519758684765605 17.179471593704992 16.82219048582514 16.51715603819622 16.32876059016765 16.31855431135639 16.520250313052962 16.90697756247874 17.389389307229706 17.850301733103397 18.187280214103435 18.339922045524194 18.30036299526301 18.111698332194305 17.853372427074678 17.611977555764486 17.446851756457264 17.370414547360856 17.35635237915388 17.367982619850014 17.386614881864542 17.42067151570716 17.48553582839342 17.56854654124507 17.617848404915573 17.576854067579404 17.43412628205262 17.23803551680723 17.064802680398365 16.97453559524326 16.99088722891237 17.113190632424836 17.34430354083318 17.701614429859653 18.19077697902246 18.763101323776453 19.30350082180161 19.670056798262763 19.761285990800737 19.570966798117958 19.197860647037288 18.797411095529487 18.49883511441785 18.341080375984724 18.27090344543931 18.199233616194544 18.068724112226246 17.886284073289836 17.708963234349905 17.601682358218213 17.596521670969988 17.67983637350535 17.81174405678885 17.95275843519521 18.071040998567877 18.13507508454326 18.117050962086804 18.01352604187095 17.857687032332603 17.698368292772187 17.56183982055566 17.439163494168625 17.31437760844573 17.201246000358154 17.147404025119467 17.19976111708866 17.361541299093364 17.58026413647162 17.782070479454504 17.92335573139714 18.014720975519193 18.106872538439053 18.2590118071321 18.505089132417503 18.82595686854174 19.142355054430684 19.342345925252165 19.337464754767243 19.118527477497054 18.77060167049833 18.42685667543772 18.192939123769037 18.104706065389795 18.144142557462796 18.274410640554745 18.447548163947708 18.591299282752324 18.616317085326283 18.456624540226397 18.11089123798061 17.647205441592142 17.169976692601125 16.778195137736414 16.53751675491466 16.46781549634837 16.543459620361865 16.706018860925763 16.887700715520822 17.041376969982316 17.16224255115216 17.280634068722804 17.428663497140366 17.610477238967356 17.797750254184262 17.949093017151384 18.041617441130242 18.09198311270927 18.142584334031284 18.220049463426065 18.305301353912252 18.34386736214499 18.28704276792038 18.126891225849526 17.89598552832652 17.639178384477276 17.389947163125527 17.171643069233575 17.011135295319853 16.938681095621543 16.9688903496093 17.08388375061669 17.235562701033174 17.362316447797166 17.4118923621577 17.367003347940724 17.259907628183168 17.153822861322908 17.09457344160703 17.077135375621978 17.063915191472464 17.03042324742096 16.984438898564317 16.944916221094516 16.913873882466998 16.87470117751375 16.81653771951919 16.755268136060053 16.725380544491557 16.752282799239588 16.83752230121378 16.970158408409098 17.146838019675126 17.377148527958777 17.667728830355856 17.996246123146932 18.29638843041145 18.475160614076756 18.462043313042543 18.256727606917263 17.933778568216688 17.595856246050488 17.314557823893868 17.107587642695115 16.9602122459383 16.369490474319683 16.469787116402603 16.672658529790272 16.93298584012835 17.16021458616372 17.25801801371936 17.188444894539966 17.004424893808277 16.818005762803097 16.734611051827446 16.810543032935627 17.05475177581351 17.443654517769133 17.916014599150945 18.362921905052335 18.65420983685652 18.70320146353273 18.52032625906322 18.21215134647719 17.92882638711994 17.795941419564958 17.86518933968887 18.10121972633091 18.407097303797524 18.670357046239687 18.801077095185555 18.753019881959617 18.536797764972594 18.218169709485974 17.8843558394578 17.593013497099697 17.347608348035845 17.119227014423327 16.887877666969967 16.664188192395997 16.479603749358894 16.362140571904888 16.32086431172673 16.349407030326475 16.44065413356487 16.595239830452236 16.813403283459742 17.075246591088234 17.328086137490246 17.501303844137976 17.545453790371514 17.46179482683205 17.293634836273625 17.09364275883008 16.9077003484595 16.787184744021154 16.794514864732424 16.973139110175804 17.30698307298431 17.715487768064218 18.09089297547321 18.34475782387008 18.43516202757758 18.370456760392504 18.198512057549927 17.98948477104336 17.813223457995402 17.712488680303096 17.68459648361453 17.688617238207826 17.67808127762185 17.638053884589944 17.598134992322436 17.60352629487564 17.661891363945514 17.71888857879561 17.695457476797984 17.553705056076943 17.32817102051815 17.100735571013146 16.950373153036697 16.918456090390166 17.01043136235792 17.22476099713937 17.572197862819426 18.05550999765989 18.62619348929139 19.167375306837965 19.52942921223065 19.599395797471082 19.364059074683894 18.92757660217363 18.463667012535105 18.125059963998787 17.969425251320054 17.951346893376275 17.97805002385688 17.978656580198102 17.938205675947067 17.886794540067015 17.865240597966434 17.89427653606335 17.96525351275592 18.05235710263399 18.128275380308462 18.167905522681224 18.145897189660534 18.04476187615206 17.873391537826816 17.672760940926153 17.491921930261483 17.35377349103322 17.248959910494904 17.166183920661712 17.123268506617745 17.162528754687244 17.31438912656626 17.562538378563023 17.84148151152164 18.073764450879438 18.2182458536071 18.289705139860665 18.343064051127204 18.44237085885855 18.627203031482935 18.882649416959612 19.130166332807683 19.258284933346765 19.187122087195107 18.927155220496598 18.583183213819424 18.291051929184928 18.135900891876567 18.121252424342682 18.2032161998424 18.336034337574652 18.478936281605467 18.577181636643452 18.562267830146318 18.383425259091997 18.04162342176586 17.59595352746497 17.140312702677367 16.770506034744855 16.557821255480317 16.53121186932141 16.66900033776494 16.905275234992562 17.154903704194524 17.35327114811276 17.48781470819329 17.591244717443285 17.6994455638062 17.815656672734722 17.911529513532404 17.95688276660183 17.95201190329196 17.937270175515547 17.967712421435426 18.07067197076625 18.222552542675896 18.36282049548271 18.431520647037065 18.400163583203614 18.27518746634329 18.080323619561476 17.84191963280016 17.59128035256496 17.37258628371037 17.2348319396065 17.206037067225065 17.273867016868422 17.391255301070533 17.498444850926 17.54648976215322 17.517948630308833 17.436870864279197 17.351052649584148 17.29013068837623 17.240565650977356 17.169493567979146 17.069629393779508 16.97130773112635 16.91189289493523 16.9012282326491 16.91916361814514 16.94343775335894 16.975126157094802 17.03383296668449 17.131767934190048 17.259202605821162 17.39656358484308 17.53778259533637 17.698437685830744 17.89670944872712 18.119643060753226 18.304042855975286 18.35744831441143 18.213658421028548 17.88230373383246 17.45004799766613 17.02980791334662 16.700366053335774 16.485179255967033 16.376577020371524 16.09874959479442 16.29285013437054 16.62680410855994 17.03956677510036 17.415969015069418 17.635171837425265 17.640852052208984 17.477629419435154 17.262123324673336 17.11470959272492 17.10771508448179 17.25996358276221 17.555292316179116 17.94568990980618 18.339149001296384 18.61185517351259 18.663124646419067 18.477989794333265 18.147501374778773 17.828949355291325 17.669584370913647 17.737494092475764 17.997110930529914 18.34009124524023 18.643870753877366 18.815366429132926 18.806664315874922 18.619484836376053 18.30367531461951 17.93604597724432 17.58238281658728 17.27089906468391 16.99705446043121 16.74911291368683 16.528653060712134 16.350355866052727 16.226173546123377 16.15315852843691 16.11991018827511 16.125650892335482 16.190410509605154 16.3415538038274 16.583116207892225 16.874373357654225 17.14397369745987 17.332958961333794 17.42618890145551 17.4436297751516 17.410294676353367 17.34694795804149 17.289805813646513 17.29856705225493 17.422542269177775 17.654902299266105 17.92715759078422 18.150696067277945 18.266511686554285 18.267497880632774 18.18771748472109 18.07653264719909 17.978831900534974 17.926015098977253 17.927515552458576 17.961786967176447 17.98233300114515 17.946479601428326 17.85117790032838 17.74586810500866 17.699606279580127 17.73857238498176 17.811898973844436 17.826350968960725 17.719479925519597 17.50402503815761 17.254091079034986 17.056588105773297 16.96750903976202 17.002451518397695 17.161861887400647 17.455018072993816 17.886343177124544 18.4138859982216 18.92760290283787 19.278305683413752 19.345003274282412 19.103404923060943 18.652733880128718 18.173471835578937 17.834053174723294 17.70791603755965 17.757016166716433 17.88383503680417 18.001492584249664 18.07155314364478 18.09954435848993 18.10930359037546 18.120042557440662 18.137920724370908 18.158954382415548 18.17210302348002 18.15826841214462 18.0927925480626 17.959908525580037 17.771779990320518 17.57021816370246 17.40056910489928 17.280185355828188 17.19716492770046 17.143112542719912 17.14061928835442 17.23097018108125 17.43472887321133 17.722935184720413 18.022669778316672 18.25568657803991 18.38212027417393 18.416528113289484 18.413362419912872 18.43958392453964 18.542657635555848 18.71770781364589 18.893687843145273 18.963984279307848 18.85665458776154 18.59552364689964 18.295064425471516 18.083994931005243 18.021450185531986 18.07885344539103 18.19063161771658 18.30774200207113 18.402514156854167 18.44345586193157 18.387248982599445 18.199300271537588 17.879547906801314 17.47216679496655 17.055298410330536 16.718966028033755 16.539770757850466 16.556398919354322 16.752003182377607 17.05432812634507 17.36255598789532 17.59676051809986 17.739270206013238 17.828549223538886 17.907940843888603 17.981456446749668 18.01748879684801 17.9883179881877 17.905764899683085 17.823617645932117 17.804937856253424 17.881325505392283 18.036088522724903 18.21820260735382 18.370714583855733 18.453244584024233 18.448009994079502 18.354152803898767 18.184026442121144 17.968185276973824 17.759011291131987 17.61594241055818 17.573065064519593 17.616838089115305 17.696677852557617 17.756522921840606 17.76179129871509 17.711860463100408 17.63680897133066 17.573319759374325 17.52913046517504 17.471548338309706 17.361358444380677 17.199418856556072 17.034416497695098 16.92533307264913 16.899197266247285 16.942519204633417 17.027406757173043 17.14009848824341 17.282199347997643 17.45030570168934 17.623356480172436 17.77416612039456 17.893336046100632 17.998531401333025 18.11383152150902 18.233118580555168 18.301518098123484 18.239177052348083 17.995417631855997 17.591347516492746 17.11544505650707 16.674589208248406 16.340303067193158 16.13330792334977 16.050769086013506 16.116737760973557 16.3308476143654 16.702625884155815 17.169850210019703 17.607637914078943 17.882486816682814 17.925635598749814 17.77180446769624 17.534320910014433 17.33816031119109 17.262311973201165 17.32796989329438 17.52046757426247 17.802477883759366 18.103427681407194 18.318356434278403 18.34727089862855 18.15697007143373 17.817010942617745 17.476991412354632 17.2934980203729 17.350216792600968 17.621453783688278 17.99954091120608 18.357326350252666 18.59620014556915 18.661057103130833 18.540619941880525 18.26674967697972 17.903673577263543 17.521357502896368 17.16763444300279 16.858507944016058 16.59056980019085 16.360902875622205 16.174300916575316 16.033126399785207 15.927658664635555 15.845482473301683 15.793143826448896 15.805058829129354 15.924764195406254 16.16867280873784 16.502751581572827 16.857859432625755 17.17223660070315 17.419794420433785 17.60087845772036 17.716729561727377 17.766211968608335 17.76941493278299 17.77681695551312 17.83496971973323 17.94110798367765 18.04092108146048 18.07460616993746 18.026001770816052 17.933318442974645 17.858206356224297 17.843501437330577 17.894150157716716 17.98778287031171 18.091811807969204 18.169154610565883 18.181904517135635 18.107496166647294 17.962892919092894 17.81314092807188 17.739721462366493 17.778733365174443 17.883053798649282 17.95165343340915 17.90234778804779 17.724268654109142 17.476348777942235 17.245549830880186 17.098834543449893 17.063354563055537 17.14536946714157 17.356510788911105 17.7066289796141 18.165075974004367 18.634489639873028 18.97165802036212 19.050210844229415 18.83239190369155 18.405590251154496 17.948909784791276 17.640063034541168 17.56380285988893 17.685444118065277 17.89842412424321 18.097116992716376 18.221876924232056 18.26244258499126 18.23806266277213 18.177140600614948 18.106630799216166 18.046746871843204 18.003882864204066 17.964942951434157 17.902380757877744 17.793433913069578 17.64208364634276 17.4821313319652 17.35245496269289 17.266597379638707 17.21182867278703 17.181651105889003 17.201164431271746 17.31081311320306 17.526068177410036 17.813376479909245 18.100004229411876 18.31023666654257 18.40331676980397 18.38862844982904 18.316739759895526 18.25791328186317 18.27100549350067 18.365900542185052 18.483204801278085 18.522638843833544 18.41642504808583 18.191965039762938 17.96140803747729 17.838864796012526 17.858839426038816 17.969033554132164 18.09160050945137 18.18005711429961 18.2214608801648 18.206395607586618 18.114234899479364 17.92423024092725 17.634443223834094 17.27472367577749 16.9076723996344 16.61540401163288 16.475443791740208 16.53205126550917 16.772217329493333 17.1205442632917 17.466272063562027 17.719346944867915 17.859645110304037 17.93253259162809 17.990862053710508 18.042298155563145 18.05199274093648 17.98822488990401 17.862169474487967 17.728449924020303 17.650964997063323 17.66635669200512 17.772123627070265 17.9374167111835 18.119719453323764 18.277252851250363 18.37596493835171 18.39409070523885 18.328318486173316 18.20182407430289 18.065486393075773 17.978715308536838 17.97193008842778 18.0220969986712 18.06962857620431 18.062248960257122 17.98753194645908 17.87529294803712 17.775059014070617 17.719861549500095 17.695852911258367 17.646790511591686 17.52005624126048 17.315815407661454 17.092725831438745 16.92727931741746 16.866021907323923 16.909175881365073 17.030689092718777 17.206339423023437 17.420624019053914 17.654141439670006 17.875104836849516 18.05011731174822 18.165658152758194 18.236008220437224 18.28336885123962 18.305448246679134 18.262876679185297 18.10305537805873 17.80287397706636 17.395159082168533 16.957855460401884 16.57395485668219 16.292283243378165 16.120956137638718 16.056917805621676 16.414988052503222 16.589026103611108 16.911524086894552 17.33251446683075 17.73450756474857 17.987222341173915 18.01952916655728 17.85773675976967 17.605156758363055 17.380242344103166 17.257940617077722 17.25357829312319 17.347372503448735 17.508018440696343 17.687401947344558 17.80941409664583 17.790477280565025 17.59064188183516 17.256424832126818 16.916152871012727 16.720867830028055 16.7646734431396 17.03809726228011 17.444542216418313 17.85833724376972 18.175386392387118 18.33177431638444 18.30385311780038 18.107190750272455 17.79168500570519 17.42405021570991 17.061703257994292 16.734337803540722 16.446717716417325 16.196983700842193 15.987813191851531 15.81960807473358 15.683132609816369 15.570949769704182 15.497975769249894 15.505174481321943 15.63654526687646 15.90496571241178 16.275916640580864 16.686603527210774 17.082885354510307 17.438075768574215 17.741051136421067 17.97589325569182 18.12361834940289 18.186889395081174 18.200082575026503 18.198780097251444 18.180096449615945 18.10599632919017 17.951882667064417 17.750206426802922 17.584589687628966 17.53725321602316 17.633805337687956 17.830131627623224 18.046192795566036 18.210500459918336 18.28105412702248 18.244065068747823 18.111057805464572 17.924393199737857 17.758649680816838 17.693906076963156 17.762841118094318 17.91625891703458 18.047997722788942 18.062719230856263 17.93094894398909 17.69706140715175 17.444986601290903 17.248836420322696 17.14546295557018 17.14762387029685 17.271258873565067 17.53334440546615 17.915604129182324 18.33480251798074 18.65648300744592 18.75210230781981 18.571679722958578 18.18864914391814 17.776051834850488 17.51529417209796 17.497019241325397 17.68507795013489 17.960347426053062 18.197953885738627 18.321621674775365 18.31508834838156 18.20450350421907 18.035318868865566 17.85681592197923 17.711040553545935 17.620170631576336 17.577639218661268 17.552542743549786 17.509861423817885 17.436092680258472 17.34909196429922 17.279270298675254 17.239606680694102 17.22032427737952 17.2169797732279 17.25373891715937 17.367165108822064 17.568946989225594 17.82681788807906 18.075291131094428 18.245482404272792 18.296080165508716 18.22987678777181 18.09307223105113 17.959849186068674 17.900433626448887 17.938066369752832 18.0232936429653 18.060390773019 17.981636294482566 17.8101141629473 17.647696716739514 17.59274182512126 17.663546227922648 17.797136310916066 17.912962636100886 17.969138949138262 17.963634410887998 17.903037483872275 17.784005801708755 17.597575956426546 17.342716067823453 17.040123378123248 16.738837890404167 16.508354765340165 16.41791636677065 16.509650128296812 16.77316646050466 17.13592561751979 17.486948377089874 17.73414305404239 17.857845224319885 17.90921638277128 17.949926147340804 17.993309859198177 18.003000068450916 17.939874899606117 17.805198697442584 17.64376257269888 17.51340887404655 17.454243198334428 17.479942391026718 17.58381375660444 17.744198478244087 17.927513190177184 18.094493937002344 18.210800614419636 18.25936177756764 18.250992298849333 18.225922833787934 18.233991385683044 18.29485499253956 18.372255503550466 18.396292801181637 18.318339411954383 18.149207507442423 17.952336627976514 17.80194713987271 17.73340878529292 17.716671194022968 17.67575066372903 17.545493429311133 17.32175174987304 17.065240680298793 16.860839813313536 16.768738489792455 16.80297191912136 16.9444075724082 17.164900115470697 17.436881702118757 17.727982983017846 17.99785467614988 18.208347211995626 18.34036643942353 18.398679737596915 18.395714298364762 18.33014409810345 18.18443192005637 17.945317347776832 17.626621694411202 17.2731472842955 16.94363260120059 16.684632228740014 16.510871743929894 16.409298653874586 16.36995344746402 16.912653368336507