# vtk DataFile Version 2.0
Really cool data
ASCII
DATASET STRUCTURED_POINTS
DIMENSIONS 200 200 1
ORIGIN 0 0 0
SPACING 1 1 1
POINT_DATA 40000
SCALARS temperature double 1
LOOKUP_TABLE default
18.1153409731843 17.91094400924723 17.67985011669203 17.43033227565927 17.174419248057514 16.928602070214083 16.713294070471115 16.55031481251775 16.458459258072157 16.448271642073404 16.517813816745495 16.651118749583695 16.820253144825003 16.990841551451332 17.129844214401707 17.213553152600074 17.233434100043834 17.197875326778295 17.129145192859742 17.056493451628253 17.00764419973148 17.001351519078074 17.043130565325615 17.12508628185345 17.22943547877341 17.33425528526288 17.419448729435032 17.471049790987472 17.482799186465698 17.455138855329224 17.39285033263785 17.302932210851875 17.193775613842966 17.0756090674621 16.961231921568395 16.865790193816892 16.804858196755067 16.7910275511404 16.83006970149906 16.918138050674667 17.041256585074574 17.177596393503887 17.302065143637172 17.39192010694597 17.43178951684702 17.416758438687996 17.352885252982063 17.255323886037125 17.14479396275268 17.043308767637892 16.96994573241792 16.937284836778215 16.94910802866115 16.99994324481432 17.076786685294696 17.162730687164476 17.241490201458625 17.301400386999966 17.337658044442136 17.3523240151822 17.35248633118124 17.347550567793323 17.346650738001305 17.356769635027938 17.38165598926905 17.42135414311279 17.47222337159118 17.527542684134833 17.578875238184757 17.618141172220287 17.639935716083116 17.64333824388701 17.632537465915338 17.616041926721454 17.60479488386972 17.60985035498937 17.64024284536382 17.701407025472882 17.794233534161886 17.914767109657355 18.05462707313012 18.202255730652034 18.34491317283015 18.470980328293663 18.571845843974245 18.642695191774543 18.68196726628788 18.689902264910803 18.667104661593424 18.614055064301198 18.531956228259244 18.42447094315972 18.299287987364746 18.168424440747803 18.046769190717168 17.949242734009456 17.887592053815865 17.867930763186262 17.88970988512371 17.94618393966032 18.025962547749174 18.11505604740581 18.198882818761554 18.263903716617317 18.29881884721389 18.295512970364143 18.249998610062054 18.163358011515957 18.042263294225908 17.898455030175498 17.746905492130075 17.603153497375438 17.480897611969304 17.390823829264683 17.340813273219545 17.336712542818237 17.38247232612798 17.478955062410908 17.621750097472145 17.799250980348337 17.99249144596453 18.177641799968146 18.330889667199713 18.434207520880936 18.479857092004668 18.471803491427863 18.4234399477699 18.352564416752365 18.275599290428264 18.203106007755476 18.13783360815154 18.075430816254972 18.007117849408903 17.92327261104947 17.816911690050414 17.686235951506248 17.535679683704267 17.375272567764988 17.218589415779512 17.080007814220323 16.972223252418924 16.904819392261118 16.884148192785577 16.914060902987245 16.996538157606285 17.13134306815369 17.314506071584503 17.53637481169232 17.780534728106467 18.02470428865633 18.243799327726762 18.41428670398103 18.518364122451963 18.54671907885675 18.49939384876568 18.38504319674185 18.219177333894134 18.02183958910218 17.814929913530563 17.619369829068415 17.452499699958445 17.326223444339938 17.24624081746288 17.2123073832126 17.219145410179184 17.257632692812585 17.316155041624047 17.382217530258036 17.444318639954883 17.493745240990485 17.52566166125188 17.538965191314986 17.534906236273443 17.51511918499901 17.480041924850283 17.42848258637981 17.358472077111163 17.268928798636125 17.16139866154615 17.04125769085212 16.918059339392443 16.80494783893233 16.71719433420741 16.67003835175224 16.676192413972323 16.743515204586274 16.873350584477755 17.059846467271093 17.290336106571065 17.5467232751579 17.807756571315927 18.051965765764685 18.260771903595256 18.42099700824406 18.525980457446725 18.57494907074576 18.57103248332576 18.51890885924196 18.423100701308996 18.287413307218046 17.86754843685531 17.69043354006669 17.498575465461705 17.296070550970082 17.089986566870046 16.891900027303013 16.718196872974566 16.58819825849851 16.52000646493123 16.52513329390827 16.6037759219574 16.74260443057769 16.91618445852852 17.09204112381838 17.238225598367045 17.331333023979987 17.362522231253454 17.339491373180067 17.283610129184346 17.223086731016938 17.184435418675083 17.185004991177674 17.228793370918673 17.30652839864055 17.39956026957055 17.485951998489718 17.546593902440122 17.56937736802328 17.55040130759845 17.492505595729504 17.40252299646567 17.288942143192354 17.161031548713922 17.02931675080216 16.90635970239104 16.80659363911094 16.74453601243583 16.731625649983332 16.772703237680975 16.86345727010792 16.98992886434868 17.130535683734045 17.26026956029654 17.356016443608095 17.40158265973094 17.391114086050717 17.330112208518845 17.233959689446834 17.124477285061637 17.025352484391064 16.95733163820791 16.934028340284954 16.959185690990452 17.026135426337316 17.119803832972615 17.2208732643269 17.31090238770558 17.376796423110868 17.413284091722637 17.42288587903419 17.413816343894737 17.39688868245658 17.382551996263754 17.378781181784266 17.38997287261784 17.416619104471362 17.455495998638344 17.50031562821684 17.542970840832577 17.57542598742824 17.59197196908845 17.59120907081337 17.57703814917835 17.558245403246712 17.54679607056992 17.55538528738728 17.594896337877145 17.67222149452717 17.788660927960077 17.939060528257947 18.111967459213638 18.29112365169427 18.458332794736354 18.59713934795776 18.696181508167292 18.750963184482593 18.763351238751213 18.739138263492272 18.684963447658504 18.606175981903952 18.506636162656527 18.3902954893013 18.263358662340334 18.135518134147212 18.01931459714565 17.92772771563694 17.871002330202483 17.85399992170338 17.874998266190364 17.926174477553733 17.995399162986804 18.06865647520036 18.13238561459805 18.175235606028405 18.189066089834146 18.169391567163814 18.115640318345115 18.03141575748689 17.92451992123101 17.806229275411976 17.6895601673437 17.5869415237101 17.508281233336838 17.46031559763592 17.44732476617721 17.47233791847012 17.537562117965553 17.643270286791612 17.78547663111491 17.953732427257602 18.130678792829723 18.29437717214739 18.423158016257133 18.501391513393926 18.523889846446256 18.497036342553194 18.436085553968454 18.359711369491592 18.28394382393466 18.217646708664148 18.160814358372434 18.105809446035135 18.040777448485684 17.95404910830711 17.83827854967414 17.693229326100024 17.526488419641833 17.35196312177713 17.186695839336764 17.04708860353839 16.9458131833692 16.890362596042227 16.883455637692176 16.9246434599378 17.011917008864476 17.14221426313853 17.31048239058722 17.507956174168903 17.72095392316731 17.931335297133753 18.118885234709783 18.2648406714765 18.355224038728746 18.382889759649782 18.34796608523836 18.257095274685458 18.122097774868642 17.958432185309366 17.78347830431351 17.61459131370578 17.46707874430923 17.352465170900402 17.27738404743312 17.243196429321355 17.24622496946518 17.278492003233577 17.328988384816228 17.385523737367958 17.436962768440786 17.475265685983217 17.496561998117183 17.500760308187726 17.489868904138362 17.465877410710814 17.429273520945536 17.378877612346074 17.3129385233768 17.23083435955772 17.134590433653557 17.02970800957843 16.925177111427615 16.832762113673404 16.765686044677526 16.736851898083998 16.7568276074937 16.831928396193543 16.962741760696396 17.14334400286187 17.36135806531842 17.598977696408294 17.83505556829897 18.048152790523115 18.220024322758338 18.338584805356234 18.39933370941346 18.404726239469703 18.36185334817538 18.279508902114042 18.16581489094923 18.027040954488477 17.612845828827798 17.47511496507885 17.334437323244515 17.189992946368477 17.043164930273672 16.899970954984532 16.772280095348208 16.67665286682889 16.63051730662149 16.646670278790904 16.728031258971658 16.86468154334213 17.03452022971008 17.207722095954875 17.353968472246457 17.450428252611864 17.487987839846095 17.473563174637306 17.427539500826626 17.37709428644014 17.3476466753721 17.35529051208623 17.40258997632643 17.47882296919438 17.564196765754957 17.636286772368436 17.676362609087874 17.673546585613334 17.625799084309527 17.53812295710236 17.419482038656948 17.28018348947499 17.130782068415233 16.982395299095366 16.847405300830108 16.739363146827944 16.67147423777567 16.65389191882246 16.6907037956786 16.777717113108345 16.901950211429067 17.043256518768427 17.17790046229633 17.283320669404716 17.342916456390654 17.34962705385095 17.307392268390963 17.230175723717732 17.138853626811713 17.056702396547326 17.004410539492785 16.995602913187422 17.033874505573408 17.112181760146477 17.21494810211376 17.322411767715415 17.41590706416538 17.482391567177356 17.516863734377978 17.522198907441982 17.5069108627857 17.481965201941847 17.45781725828855 17.442413715115052 17.44028697158179 17.452425228921783 17.476521534032997 17.50744901928965 17.53812054767241 17.560971345625532 17.570033298354932 17.563114111382536 17.54329625358767 17.519088663180103 17.503059253188034 17.509332957184697 17.5506249917535 17.635413415395004 17.76565344946532 17.93537102015277 18.13058500112712 18.33103958680166 18.51386531879557 18.658499373668086 18.75137146416059 18.78858895795592 18.77549189401609 18.723303898466305 18.644476581085854 18.548908926355924 18.442639648858115 18.329183975674958 18.212258915953253 18.098029001428234 17.995481710657454 17.914712542012715 17.864019955832852 17.847192357981346 17.86210292678213 17.90103096544262 17.952433966526527 18.00346969688641 18.04246292689315 18.06068100245982 18.05315873918162 18.018753140883874 17.959864431105135 17.88213614167595 17.794037597319406 17.70593450112343 17.628435153253598 17.570403014629797 17.537537612799248 17.53230840678091 17.555228706064405 17.60651355400541 17.686788346389267 17.79603942244064 17.931141771993012 18.083372618293737 18.23766592946331 18.374719855151596 18.475698315055503 18.52784348156003 18.528612510407346 18.486424244744875 18.417567177956414 18.340506613015584 18.269842390965863 18.212071262108967 18.164349803800096 18.11627967085825 18.053872270296768 17.96443110954992 17.84099900043603 17.685161395686464 17.507404798665583 17.324915113419433 17.157514822273345 17.023079353182833 16.933947752347486 16.895426738501886 16.906607275067163 16.962727734502746 17.057693340399897 17.18544660962415 17.339674743818954 17.51240896022703 17.692775478251647 17.867053271757886 18.020356760872666 18.139260622000013 18.214181302191406 18.240606544869966 18.219034465413113 18.154148464006894 18.053883173986083 17.928675321789235 17.790752176057044 17.65316767504779 17.528492712861137 17.42734559261901 17.357058542199557 17.320701765253194 17.31660179355502 17.33851433896691 17.37665003659113 17.419601998657736 17.456825679748814 17.480887624761934 17.48858769639426 17.480474861325376 17.459058437864623 17.426696437340052 17.38426566733293 17.331195390500778 17.266641236654227 17.19102769590732 17.107190171081083 17.020756779500047 16.939833124494015 16.874215719500015 16.83429406926569 16.829717481377124 16.867929619568336 16.95275689569053 17.083262374631023 17.25303814982838 17.450103847081262 17.65764823764353 17.855866696522693 18.024909983605134 18.148438484593495 18.216743622129535 18.22828238872366 18.188999706457558 18.109758723792282 18.002986575916005 17.879782402115794 17.748216523035957 17.384535192205426 17.29328432731356 17.209382918382488 17.12689680198173 17.041392369997162 16.953235090793637 16.869717007982842 16.804624752094465 16.77477455100521 16.79442276435515 16.869528087293112 16.994048535113972 17.149795209425328 17.310202849334708 17.447117746881634 17.538650700555127 17.575586614523353 17.56408107767843 17.523510324882466 17.480052208794707 17.45816590293244 17.472900723930945 17.525581202225236 17.604095663028332 17.687334435451287 17.751930465288968 17.778831650232167 17.757566083973025 17.687188163408454 17.574331687813952 17.4298920537772 17.26609782665789 17.095055175560656 16.92872810441165 16.779449874487412 16.659898558303585 16.58195982826754 16.554623385726526 16.58159136683171 16.65944408370948 16.777074948911174 16.916801608624503 17.057156343319527 17.17689458981263 17.2593326936112 17.295908482435625 17.28799679347479 17.246485998653817 17.189224302552 17.136934323716716 17.108475930575135 17.116474001433556 17.164366514012784 17.245759122519036 17.346432636679463 17.448486883914327 17.535283913524864 17.59554270904211 17.625345797564872 17.627729490473417 17.61046238599989 17.583141455557854 17.554692973324787 17.53188610751313 17.518849688178467 17.517147509421253 17.52591871386133 17.541913306693495 17.559700519204576 17.572544663492078 17.57420647036181 17.56134046024285 17.5356162099873 17.504598901482357 17.48087455748512 17.479599311088233 17.51515372613751 17.597680788766393 17.73013138017487 17.906340765633008 18.11072578196122 18.320194060610586 18.508436941294057 18.651854909560832 18.735346597665426 18.75577654084813 18.72160786655156 18.64878965500918 18.554720212376647 18.45297329901919 18.350939014485856 18.2508978973877 18.153278630801232 18.059940702856487 17.975673866210773 17.90733858601807 17.861370888487397 17.841053612308702 17.844826522432502 17.866252678168404 17.89551782894997 17.921818577948336 17.93579564635061 17.93128521084916 17.9060384616051 17.861540539930314 17.802374518968907 17.7355098847496 17.66952687633081 17.61349886236853 17.57540064444674 17.56044119888397 17.57015357894522 17.602912121374022 17.655749546456107 17.726431944707592 17.81440557290741 17.91978503061311 18.040735114794156 18.17071781525165 18.297447665911633 18.404730157294207 18.47691744115256 18.50423343531287 18.486534131178804 18.433637312647217 18.36192352543536 18.288611640065913 18.226024365330034 18.177909478063615 18.138825603040797 18.09643748462204 18.035788904486175 17.944290506308178 17.81610353171633 17.654731961754315 17.473026009607686 17.290498911243663 17.12871720851535 17.006214722158905 16.934576862222944 16.916904142881684 16.948921316437673 17.021927989252173 17.126081086148357 17.25253686273542 17.393773919904284 17.542532953878503 17.6905748073784 17.828407570974246 17.946341522831677 18.036277725059595 18.093184887824673 18.11552943179616 18.104685590371574 18.06396411833381 17.997949067080402 17.91238932613435 17.81437453763757 17.712317272963794 17.615424309849498 17.532644978285013 17.471298346764083 17.435663257761938 17.425871038750728 17.437513209341034 17.46234205981168 17.490140389536812 17.51129939550881 17.519166710371508 17.511182979693473 17.488359038202937 17.453501947376882 17.409250571578763 17.35699463631189 17.297118255789368 17.230178803596385 17.15816982490917 17.085164811614643 17.017162206564556 16.9613953954243 16.925463674896147 16.916466835291548 16.940151415523175 17.000052479977416 17.09668156828492 17.22684803527552 17.383201006158476 17.554137811274778 17.72436416065309 17.876452612982252 17.99350912857095 18.062498074509186 18.077194861637675 18.039586813019394 17.959062206914496 17.84967727288475 17.72658604466896 17.602868667782968 17.48749978565911 17.211710676308574 17.16779198298273 17.13868439668154 17.113833140699963 17.083602720356257 17.043293496501075 16.9960631817718 16.953160184942444 16.93082333449669 16.94467534598661 17.003613563790207 17.105489816046386 17.23624228479996 17.372976850008246 17.490224133867905 17.567528440026422 17.59591792743934 17.580941592190296 17.540978440664233 17.501186650593567 17.485121116501908 17.506962452393097 17.567044523192717 17.652064982167925 17.73959646571372 17.805017698001222 17.828313408346663 17.7985415833595 17.714923427398116 17.584948233727644 17.42096146674986 17.23695505802805 17.046675194212835 16.863143798771013 16.698882179751692 16.565929234570913 16.475113428398856 16.434601572274328 16.448156169755713 16.51367305107296 16.62252859650367 16.76013823841017 16.90790772298191 17.046397458684744 17.15907292746224 17.23568160104443 17.27429490016958 17.281423235274325 17.27016873875577 17.256871827308036 17.257018395875402 17.281348518921334 17.333174420082983 17.407755011231508 17.49403380598587 17.578205080128324 17.647823845556925 17.694975783354256 17.71752348178614 17.71835531052591 17.703372773246148 17.67928080245556 17.6520334386157 17.626242321291745 17.605284488435547 17.591519439833476 17.58609757230568 17.588285116335186 17.594796978192846 17.599932265988134 17.597058983914856 17.581256025734763 17.552134916437947 17.515564106076617 17.48341945743204 17.471311046909754 17.494960671911343 17.566180432389423 17.689304033451403 17.85877694892244 18.05860801979416 18.26434287718005 18.44776342686877 18.58351372527155 18.65569830757999 18.661959335444948 18.613204440697594 18.528928456635736 18.43008797702699 18.332607733222584 18.244142990331557 18.164949410870868 18.091661446928544 18.02159231140851 17.955367096917534 17.896949897698427 17.85157123654231 17.82293503705888 17.81111719454991 17.81199057319289 17.818251552018122 17.821514116538967 17.814632662700905 17.793455023068624 17.757556792229128 17.710004250159844 17.656551453010316 17.60467099061093 17.562510653150564 17.537614409182233 17.53537534016553 17.557648724279236 17.60229873754103 17.66423222943227 17.737676106349976 17.81858261185087 17.905748905556294 17.999821323497123 18.10055484141448 18.203836224914568 18.300363266821993 18.377189029097444 18.421859059474208 18.427361495885595 18.395457902792803 18.33662121923959 18.266450829653042 18.20011562647522 18.147153941906517 18.108537342844805 18.07674890581644 18.038496475001832 17.97904083968281 17.886938177328958 17.75802586115931 17.597609595967086 17.420137182875173 17.246270400697398 17.098084348752487 16.993821015742245 16.94386171328368 16.94918769660369 17.00266497984461 17.092378592332786 17.205461390146603 17.3308306306979 17.460013631818438 17.5863844992193 17.70395397631546 17.80685544638911 17.88991790899147 17.949800305750312 17.9857465096785 17.999351587504115 17.993482195680844 17.97107054434053 17.93451203542749 17.885918119031853 17.827914710359753 17.76440338586204 17.700794110426884 17.6434976683449 17.598738129581797 17.570960945545345 17.56131032257268 17.56679181077825 17.58065885079293 17.59413854941007 17.59896024577182 17.589644877307585 17.56453851044703 17.525209043345196 17.474725226071804 17.41592942000123 17.350700757184715 17.280468583346156 17.207405470937296 17.135377972961628 17.07003761550238 17.018068818249144 16.986066194601047 16.979531939408737 17.002204161949216 17.055664449077724 17.139099986809086 17.249147648246204 17.379791880975706 17.522312523884608 17.665374225829158 17.795530455647167 17.898513714578574 17.9614751718296 17.97579945949215 17.93955550690353 17.858496935028555 17.745016235034207 17.615346162937673 17.48602710135791 17.37076954689721 17.278365166170698 17.114100490988125 17.11248861085578 17.1292112941942 17.15022765678753 17.162028472113217 17.156101308654616 17.13241043589887 17.100147705390984 17.07497498548384 17.07351099066033 17.107060473115663 17.176919247026234 17.27297724386479 17.37618707857302 17.464224854078815 17.518640054706722 17.531181902800125 17.507037000190312 17.463584612125867 17.424825051394837 17.41330396160586 17.442393359362022 17.511682910698415 17.607007817720515 17.70485032937927 17.779285090441647 17.80891671559363 17.781585590163566 17.69575027762461 17.55884553696859 17.38395529135341 17.186422262411366 16.98152778653806 16.783498543782887 16.605365042034602 16.458953313561445 16.354508302667334 16.299837311538816 16.2991567679055 16.351959870806894 16.452279586911605 16.58875020734522 16.745794384795566 16.905976768802468 17.053110319147947 17.175305036410737 17.26706644124015 17.329846179947477 17.37093844485702 17.401052619959138 17.431168677013275 17.469450257257296 17.519075262281174 17.577712255098287 17.638871165982138 17.694589413459607 17.738292594561248 17.766625842588464 17.779659126083004 17.779746917472856 17.769930883674693 17.752808739511558 17.730337689857752 17.704422961677565 17.67768285187158 17.65366787779309 17.636090292774718 17.627205563797858 17.62612918523499 17.628190999256393 17.62612016499105 17.612962900378708 17.585638010672643 17.54755749851015 17.509093075036883 17.4856073970207 17.49369473505328 17.546725480446156 17.65075376849193 17.801660504496482 17.984323711725033 18.174516556677247 18.3437579149076 18.466301928906418 18.52621717054265 18.52186761946631 18.465736895746698 18.379398411366196 18.28565046509753 18.20116612602654 18.13264978401077 18.077638230774184 18.028812836976957 17.97925442582255 17.926115138238156 17.871424798250402 17.82032123052617 17.778056765550666 17.747336800346254 17.72705908124673 17.712751687976585 17.698311128906774 17.67822440739 17.64940872368202 17.612106460884192 17.569768901180915 17.52825766332003 17.49475277195567 17.476524769285632 17.47952539708781 17.506872309577513 17.557692263849237 17.62703830392809 17.70731968609308 17.790898582541107 17.87269412145115 17.951389702452172 18.02843879449848 18.105251864490835 18.180073575643686 18.246444614597017 18.294460983432476 18.314557612550114 18.302041531279734 18.25999135792621 18.198869749035193 18.132880737704653 18.0747345490963 18.031114865222026 18.000554461975483 17.97418223201837 17.93872461283921 17.880663888274025 17.790459517361633 17.665888147315012 17.51369570839957 17.34899143961409 17.192304732984553 17.064933701395706 16.983876615102293 16.957920807052037 16.986157037238364 17.05932701413742 17.163313102149687 17.283246516485008 17.40660026868776 17.52434981183932 17.630426606522228 17.72055080385614 17.79157807093984 17.841778099969712 17.871567127282905 17.883812862051233 17.883159429336114 17.87455783323643 17.861753369338484 17.846502248737423 17.828833145880033 17.80810430388239 17.78427308284656 17.758785192901804 17.73469094250358 17.715871826138088 17.705570962335916 17.704748465617726 17.71100805456322 17.71875359724921 17.720728947122986 17.710363285852385 17.683830394226867 17.64082592957721 17.583787979954547 17.51620280268205 17.44114300409099 17.360928749897273 17.27796588767607 17.195998166779816 17.120781702918904 17.059649945431946 17.020174860464472 17.008594807124762 17.02863028395959 17.080934691777166 17.163087443605495 17.269920705404637 17.394009299657416 17.52620014238192 17.656089186909266 17.7724558751458 17.863854707115326 17.919684339224947 17.931897318389975 17.89705804534834 17.817978779905058 17.704059587965638 17.569907530230335 17.432576449877832 17.308345118319348 17.20996504136808 17.14483881982924 17.09830762469261 17.12991122200618 17.17883044144094 17.229067894697344 17.265046322450193 17.276171209305993 17.260538677292033 17.22597932469374 17.187587208523087 17.16242742643206 17.163372836334897 17.194357694261317 17.248725231937122 17.311219566234946 17.36300956871478 17.38820714021506 17.379790578897058 17.34283237263547 17.293633732446196 17.254735617521543 17.24736464447461 17.28397731047102 17.363612282124386 17.471671538388847 17.584021480067925 17.673726094416306 17.71795688048231 17.702892699662808 17.625476697558437 17.492197002064604 17.316040697891236 17.11308758276075 16.899858314174388 16.691823699250005 16.50284612557372 16.345041618670443 16.22861897113662 16.16147222454795 16.148495528113344 16.190727953935493 16.28458195358404 16.421555129402577 16.588839833875365 16.771002282691597 16.95245603897774 17.120055938483127 17.265047687540008 17.38386944585363 17.47771617105239 17.55110749311746 17.6098796618565 17.659140527943546 17.70181453221511 17.7383152134684 17.767457486999 17.788075042889897 17.800361028586423 17.80609836263382 17.80766687890609 17.806527226900897 17.802223381431197 17.79261202165278 17.77528305867842 17.749454086985693 17.717339940593174 17.68418597908562 17.656700363459485 17.64034704423466 17.636618702915413 17.641667094532714 17.647257441680605 17.643986949505237 17.625553741972606 17.592253836492475 17.55219615153612 17.519742511821107 17.511765554211173 17.54291900146419 17.621146435525624 17.74443868309393 17.899698369553555 18.064429871822085 18.211491267255912 18.316110310803552 18.363101025919992 18.351512707382682 18.294518334604078 18.21423155863126 18.133471372482827 18.067975952264838 18.022302030741123 17.990755138630963 17.962264914398656 17.92648482661645 17.87830367803317 17.819194974857183 17.755521602815616 17.695155101739665 17.644128882233463 17.604631550951115 17.57485305848736 17.55040904118113 17.526541206658845 17.50015285335173 17.47099399815169 17.441800457230826 17.417622082138333 17.404705717416093 17.40915018628718 17.43540279344033 17.484776921943507 17.554482012799635 17.63781346571865 17.725827748597013 17.8100773143194 17.8852462431799 17.950341152608104 18.007687089694826 18.06011578134689 18.107813468365833 18.14666974592629 18.169308063719463 18.16852615843621 18.1414128404438 18.09184808789808 18.02986872670416 17.96807112061747 17.916780546689857 17.880210629936613 17.855105877895635 17.832053645333264 17.798629224058185 17.74321587798356 17.658534501219666 17.54420197831277 17.40779652359898 17.26404593040499 17.132075855483208 17.031203984686922 16.97635213084439 16.974466209949636 17.02314222802637 17.11192234758451 17.225695674623026 17.348789393852122 17.468149967050305 17.574653232692306 17.662691772108815 17.729067397671535 17.77230853874 17.79285085484074 17.793636033132167 17.78026539327574 17.760142909307298 17.74075495497441 17.727811447783374 17.724055445688002 17.729174090851643 17.740719188227597 17.75556290799811 17.77127975053172 17.78691799422896 17.802846113226842 17.819715758287952 17.837014559628884 17.85199678121195 17.85971789558263 17.854362534759957 17.83128849131539 17.78870703857117 17.728076820042304 17.653067356634654 17.56785188009666 17.475892322050083 17.379985525722702 17.28342096090711 17.19131231926596 17.11105630191106 17.05146765279931 17.02095554406263 17.025568695396288 17.06762968657638 17.145236121160334 17.252516856705682 17.380391526888737 17.517612132141107 17.651906196958354 17.77105550555074 17.863815544695516 17.92074095228999 17.93510821861774 17.904041394900997 17.82962914024648 17.719496194721906 17.586270851908946 17.445788419066403 17.314461691920705 17.206612149239476 17.132425587785267 17.09671647022483 17.15641216776299 17.21065661110368 17.276778501477622 17.338389874481564 17.37975275237306 17.390073801809766 17.36706869076027 17.318027560372553 17.257541125237523 17.20254546891476 17.166544370081624 17.15515572037085 17.164502113803643 17.182887691509 17.19516614614357 17.188445741550606 17.15734313357606 17.10696525138182 17.05232567693746 17.01402766138534 17.011465429646726 17.055894248973697 17.145906983712685 17.26695853115624 17.39499622542798 17.50273134796786 17.566293276756774 17.57019160733398 17.50944215755609 17.388879790023978 17.22057761698637 17.02062846846296 16.806327081919928 16.594265214596966 16.399336586544855 16.2343550320802 16.109932355207228 16.034329681396358 16.013096619875498 16.04845221640852 16.13857144430313 16.277155051053818 16.453711568014178 16.654751383168424 16.865674403554653 17.072795181902013 17.264922414922104 17.434178201203625 17.576072548822967 17.689027478290612 17.773575484797746 17.83148810753892 17.865169197366875 17.877610309333548 17.87287996733169 17.85662295032528 17.835800285503684 17.81725366973099 17.805506433420703 17.800935663222955 17.799488952538802 17.79438587626196 17.779202129027468 17.75101290635919 17.712217587860852 17.670207532290377 17.63487488720987 17.614802119659256 17.613583141460968 17.62786329885242 17.648152768716695 17.662340781664252 17.660594002755072 17.639635348313853 17.60467659385924 17.56833499966954 17.547057441773 17.556296135382404 17.605776680607267 17.695969119163948 17.81666130910603 17.94834775314448 18.0666685873451 18.149135233310826 18.18213587738355 18.16548438260285 18.11229440087762 18.04380482372618 17.981136540775196 17.93751921143074 17.914329544270338 17.902384707041904 17.887405675612456 17.856794406220523 17.804688390338008 17.73351377902367 17.652069507080494 17.571573512819153 17.501578312668236 17.447279837555737 17.40889809815619 17.38292717681927 17.364432904694972 17.349373134498126 17.336137972129904 17.32599558321518 17.322593467609867 17.330863035785978 17.355606643291683 17.399946241099 17.463901162185124 17.543588288687484 17.631601599246245 17.718778795873533 17.796875979261586 17.86104454779743 17.910883710352586 17.949412188159442 17.980348774701497 18.00508314487007 18.02106358357823 18.022704477187123 18.0045370080496 17.96493983062243 17.90828224782367 17.844106467231484 17.78363147694962 17.735331076673564 17.70171281427616 17.67859158604156 17.656808897444524 17.625382695452142 17.574888454180964 17.500235738055842 17.402422588308283 17.28904236700749 17.17336428292673 17.07195015811798 17.001130773439563 16.973140741313685 16.993042397972484 17.057501321179576 17.155909447965808 17.273448511852294 17.39486587303138 17.507482430472272 17.6024860876732 17.674597292595685 17.721060075427992 17.741042279493644 17.735894141188172 17.709846006970754 17.670275411842592 17.62691096591916 17.590010416662828 17.56815179241114 17.566462723693732 17.585875245190454 17.623552624850472 17.674220404518977 17.731861778343728 17.791142206633587 17.848041964184738 17.899523908255045 17.942567132799326 17.973305339822968 17.98701327440059 17.97917643477049 17.947125486522694 17.891238173806606 17.814901822564803 17.723217949719583 17.621285147252248 17.51319597075681 17.402385354981995 17.29301097699335 17.19131191570256 17.105891413263667 17.046558243275467 17.022206331554443 17.038643389933092 17.09712125781545 17.193845264653394 17.320347859752314 17.464485400496557 17.611855143582464 17.747453544283886 17.857362079279387 17.930243708739667 17.958526275215462 17.93926644024223 17.874693409502463 17.772296971600422 17.644198312489106 17.505626967405007 17.3726661839613 17.25981384502771 17.178021076167756 17.13357455388332 17.127689826301406 17.267552203795628 17.334834086587293 17.405072268691924 1