# vtk DataFile Version 2.0
Really cool data
ASCII
DATASET STRUCTURED_POINTS
DIMENSIONS 200 200 1
ORIGIN 0 0 0
SPACING 1 1 1
POINT_DATA 40000
SCALARS temperature double 1
LOOKUP_TABLE default
18.816423720956006 18.23138586164218 17.646043971567934 17.16176952281679 16.734852188311624 16.244040671162665 15.673876194112113 15.186717661798646 14.984565193019954 15.11956866347152 15.48250918789787 15.964530408325368 16.53716765884486 17.14374508699771 17.59965682679643 17.70775950459647 17.455213452300725 17.028669038373568 16.644304731714403 16.387545559044234 16.228953514112597 16.161309217222122 16.24217399454687 16.504952061203735 16.89308271290051 17.272475889418125 17.48084228198822 17.435059597318507 17.238704598529647 17.116727702066886 17.188046819607337 17.33971204582733 17.358691557515222 17.152335817683046 16.800308986864014 16.435260372510754 16.152336152691692 16.026279717930887 16.13199517332776 16.509301518064245 17.100988184089445 17.74684445567277 18.27317978411068 18.576194193449304 18.608983482226442 18.351421213498423 17.848581652068567 17.22462178435281 16.60406494436418 16.05577117015292 15.632976712015903 15.41675230676897 15.479747810961102 15.80641266299407 16.26295060483842 16.674048548492436 16.931994938413546 17.023983245329127 16.987956898119673 16.87889187305972 16.75916687768986 16.668017905457035 16.594861879801858 16.51622557417235 16.463689188222826 16.52055681792031 16.740331923439463 17.074096919026527 17.385297805066852 17.55436731342969 17.558471617674577 17.46545670304068 17.379930691341663 17.387372458998666 17.494106258681906 17.622410701907214 17.696326321649924 17.717569982893338 17.762029575195026 17.92119500406118 18.237709067223026 18.661674780081825 19.072890741575126 19.376622953662242 19.55083596040634 19.616896116643275 19.61862663271114 19.615452219264576 19.642287134379774 19.661330408112388 19.57781345255701 19.315458684781 18.85521299197732 18.24190710526742 17.600939486253157 17.115494569839797 16.910842117366922 16.96459357383572 17.18375230258644 17.523061097176512 17.964950706091894 18.436833790777165 18.807099445964678 18.980797418861346 19.000776597040467 18.997888606316526 19.02430359742621 18.976671345694495 18.702866713447133 18.18090537984404 17.57418164080925 17.103127607942675 16.866779846490754 16.79116202115875 16.74665087991116 16.689017497741062 16.66969708052289 16.758174662873248 16.995417472287418 17.38797969046928 17.909382847505334 18.4954018890487 19.0374350959712 19.379088524398576 19.380258559723156 19.047907728171722 18.5632245973731 18.14304663567888 17.898139699920893 17.815760027743444 17.855414017114615 18.004636526487616 18.215519574496614 18.364514144474658 18.32687054609632 18.077345518298905 17.690291127976856 17.261267465928196 16.871918161339824 16.59968648195064 16.477266107087722 16.458760110658602 16.465763612836152 16.44205046571489 16.38400585975242 16.346793676047646 16.424760507929765 16.70468733984258 17.22335326224799 17.916927936153034 18.59588558671286 19.038421631656522 19.154874608533596 19.01952964337167 18.74551341735075 18.381895136246843 17.915139388475694 17.347313253887844 16.76460580738268 16.313370804564173 16.1043019707948 16.13581883586573 16.31209595305231 16.540266166794403 16.79318805473809 17.076811101350238 17.36895092146853 17.60749468295 17.71259972395495 17.63589477024249 17.420001344252896 17.204760111776462 17.151085721169952 17.322917143453363 17.62822811260432 17.8893549841842 17.96976081302716 17.843336890672227 17.58028989512564 17.26745542339015 16.936762032648478 16.57336706258876 16.192817162687614 15.86984189961988 15.677287681152642 15.641626440280863 15.76781137303026 16.070865873611112 16.55832768563782 17.199432744765655 17.92106120631855 18.61867221785553 19.180887040200155 19.531034230726746 19.669969618918405 19.685023993063037 19.672660095340117 19.64201690043685 19.529794357867118 19.265937704899628 18.22397483877132 17.723925530245655 17.221906134812553 16.81632681207627 16.477745008575695 16.091832432774197 15.633060606959527 15.243136436790028 15.100071845020713 15.246928999338916 15.59430987340947 16.070584737269034 16.675275582735413 17.35347722352915 17.89878767181526 18.088549249865405 17.902653937692815 17.534725826537006 17.20477619161402 16.99511611451506 16.87520974302182 16.84187507414451 16.94936639880633 17.215985260312852 17.568529745618857 17.863010740430866 17.940172233259904 17.745386133297757 17.429425774567836 17.24417011647457 17.288883135504854 17.408790705255466 17.369037023984024 17.089222785633204 16.68424287785975 16.32300792999137 16.10974211419636 16.087450790864423 16.277737599955717 16.685195032094764 17.259563694352078 17.876168824708284 18.388804968045054 18.68861129179247 18.704092933847168 18.39795770164787 17.81315827368587 17.085732390512305 16.368938099282417 15.765491232000915 15.349570667773976 15.205458705114635 15.391519792837926 15.865449554340842 16.475558101996818 17.046475914132145 17.460077550105286 17.660218819050662 17.635416586758545 17.430430604144522 17.149054259878877 16.896117278350495 16.71534505634395 16.603241246330995 16.568206300526477 16.63768276530626 16.814678523707226 17.055406095199455 17.28788770706291 17.444459363727656 17.48016729548529 17.398355696187014 17.27066823347312 17.202662812384045 17.23956142717883 17.334856277046057 17.424004295707217 17.491785325290927 17.58836995808244 17.81042654462992 18.237078468003446 18.83530884701203 19.44491231708681 19.88781316020498 20.064416067459014 19.977593028476974 19.729531960652924 19.48040651070728 19.35068396140134 19.33334563987134 19.299627035487344 19.102459971436446 18.672716771330514 18.060493557260088 17.426085816534382 16.970879549807815 16.811147842815565 16.90265073760014 17.130781336151482 17.439837112409318 17.821443924738688 18.223127912527946 18.524874833248408 18.62890348546189 18.57078718621236 18.482215219765568 18.431392723269838 18.344270626070514 18.09339709246842 17.65371754608319 17.164095760159036 16.82997487714716 16.754855953208747 16.861276898226997 16.99151327957575 17.066746887170524 17.115055242132566 17.20223633561297 17.393888664654746 17.735909940653258 18.21937783764719 18.76353694446512 19.23596800534154 19.479094606497082 19.375499041868636 18.961357466562415 18.43734248575075 18.01716029393011 17.793180805030143 17.749615856906342 17.86390703732287 18.12810952541736 18.459717253788977 18.674899626691484 18.601495963642947 18.216822038435527 17.651541922920774 17.07361254874185 16.60693599200994 16.322845858346927 16.2229441360458 16.243048682833322 16.3083324790224 16.3660880971064 16.397159000309976 16.429542726723195 16.53052864427211 16.764484722697656 17.167446910040976 17.710221759987096 18.25293319398032 18.610515439623057 18.711019380871384 18.63651334096319 18.499281056916093 18.325528131951682 18.05045944887072 17.622529644824183 17.105504436182212 16.65242290970445 16.384746357168527 16.30925733425047 16.352228157818345 16.45928349989734 16.63361733553732 16.884833344140297 17.17861565954841 17.442974367047373 17.58707618842516 17.535833030605687 17.294066710766064 16.984298243224448 16.79724018388653 16.84981869396311 17.079948407060737 17.315361438997922 17.426152024745598 17.392457700277124 17.267622027239327 17.097042389677593 16.874438579100985 16.57717077707821 16.243284986439814 15.97004762336922 15.826919428258227 15.821533905150575 15.946207277118496 16.212737179401262 16.628124036711895 17.169841319580307 17.79133304528735 18.415785637652803 18.93280061795051 19.23777836335963 19.301511934143605 19.20746186661657 19.080812963436237 18.97093580769825 18.83699617519725 18.605071067014187 17.518055793300988 17.212341375539157 16.924292341664177 16.723652583387427 16.569064809029733 16.33305005916979 15.97147015551531 15.614791783224364 15.44595964610272 15.533051273269564 15.821367218704928 16.264723109035696 16.87391561062059 17.59923626046837 18.232044213632577 18.526875844849094 18.424005003573242 18.085439826972113 17.734388376183592 17.494576906227472 17.38514846771243 17.418606802210544 17.61253231487438 17.928225420477627 18.26152757841547 18.475778059860417 18.440945807416973 18.1352581859916 17.72869828502194 17.467852710743262 17.43623956393678 17.481196141728827 17.391007922446903 17.101884775910747 16.723286496996693 16.410155900327887 16.254465027435902 16.27920018454721 16.475106373051002 16.82534733732983 17.29252849606615 17.79809419781405 18.24206060828884 18.525763841128786 18.55475211698952 18.27021854786523 17.71323438935202 17.027162467495387 16.368203550523727 15.832369724798827 15.48684360719311 15.419661127563256 15.694407987656529 16.262904230153286 16.968141648524767 17.637716019870485 18.144369756735273 18.399316510996208 18.358208422198917 18.059905792772536 17.638023273387287 17.253289799551116 17.001595768014262 16.88980545398392 16.883438634440974 16.945197265972375 17.04357143786593 17.168324641553507 17.328327243094776 17.499866793244024 17.5926908786789 17.521277536179987 17.309072363735606 17.08551797164993 16.96448900031263 16.96915027468029 17.061880448714305 17.197775745435273 17.378391483460295 17.682244075478753 18.203402000115762 18.919053848303403 19.64726145174473 20.15684690097762 20.291612875009353 20.03998794855279 19.555016962388457 19.08370866726995 18.817031999162047 18.770749845997898 18.789519783219582 18.679494096313835 18.34645924445399 17.847139474160617 17.34997831910969 17.03889990037316 16.99648058156258 17.152288308812672 17.37907769403765 17.619295121259153 17.878569661600075 18.13089291057052 18.282840817119155 18.25505098385185 18.089751098030764 17.91756550807678 17.810719745005414 17.715597373062366 17.533396072768827 17.24542141551891 16.958242553027173 16.832039674604324 16.94520763536391 17.210673081916134 17.458260263250782 17.597638546788723 17.656439858909796 17.713011041048752 17.857706628777127 18.16276530256988 18.625799199003076 19.14459398499407 19.555186410951357 19.69041936676387 19.461819176039313 18.954241390481013 18.40200553019216 18.013730236924538 17.84751984519378 17.861930575613886 18.03151481973034 18.346302245494204 18.70875902941382 18.916392076071762 18.789341533794975 18.317154562268637 17.660606365344574 17.018271716121877 16.525897094986565 16.24603182664719 16.17015458078038 16.236151257055425 16.373477251956842 16.51803063817194 16.623246080371604 16.69603773667065 16.796415994372545 16.97784347066274 17.262042378497974 17.631038970205488 17.991677750466753 18.21895529933413 18.28641671731845 18.292602111491146 18.33495159081767 18.398549611838398 18.363762756903743 18.128679760932613 17.72433623633457 17.289305047631483 16.945301801982204 16.71654554166786 16.567241753783104 16.489411116639456 16.519915952098053 16.678731383315885 16.92904625212797 17.200813899282608 17.406252738171016 17.45005525845747 17.285579914389437 16.98624804374106 16.73626873476369 16.68262614498961 16.795629211383222 16.932220313463766 17.000363930458402 17.00780343090613 16.99394101935669 16.957798962378572 16.854230494131887 16.653577449535945 16.40986647718716 16.23210051596512 16.179834821856954 16.23603306522484 16.36986720063994 16.584036309593266 16.89591011921835 17.311139634243602 17.81659826859531 18.34783022717523 18.771699691146804 18.948189157886492 18.838348143157425 18.553999124763184 18.267818155163493 18.06675363384592 17.92253802171595 17.75875246768269 16.722434291420335 16.66919906572146 16.689698558586652 16.80289381521375 16.925881932000333 16.896590716238244 16.64328170375884 16.28869057145659 16.04057891946966 16.01821578505362 16.21105583361166 16.584811039366073 17.14757434031275 17.864168913439556 18.54886945773745 18.942163755568437 18.92063094324443 18.5820317448069 18.148238643801694 17.81481189091946 17.685854469334355 17.79561193035478 18.102120976382782 18.486383178367817 18.811333606549276 18.963919080784844 18.857520785951245 18.49394920895355 18.030905559346632 17.686469117480918 17.54075131244231 17.480732748708384 17.345870440909838 17.085339517637525 16.77359227663452 16.520317666715577 16.393948749574704 16.407352029445157 16.53878705559334 16.76401693205046 17.06582171165866 17.419885639145864 17.784256790836917 18.07836485696324 18.183200070621847 18.013340693442217 17.604564008400185 17.09679115544784 16.62089864475048 16.231308614928263 15.970405882253724 15.937977841130962 16.22606160797062 16.803482068554484 17.517460422600863 18.193578877873247 18.695459118985617 18.926292387883333 18.84476888235534 18.496134024005737 18.01951206686292 17.594371767192865 17.34432705888325 17.27607560195202 17.309766640795367 17.351149505293797 17.350683674592773 17.344628227548412 17.424016763977047 17.607083083433427 17.76240587468969 17.71945909638087 17.44526735741333 17.075368876786396 16.783826977455103 16.67120577274946 16.737931648681624 16.917089992291494 17.165876086584493 17.53805061300566 18.12424071470081 18.900988378123127 19.678157246735175 20.202359908148118 20.287012384109126 19.9093219340529 19.251603050353236 18.615359935930243 18.238177982829292 18.15616424230053 18.210211815260262 18.196930730298206 18.02053534574617 17.730473179781647 17.461942656429567 17.346138350685532 17.425596123968706 17.625182422401156 17.831875552612505 17.994276991409656 18.119599443783397 18.195177809954416 18.159377573900265 17.971684365396047 17.696272519668327 17.46049610992915 17.325575990209142 17.24110954705516 17.131058287129356 16.99457343657889 16.916812443495324 17.00358119891403 17.28771002047447 17.664680480789585 17.965590665856404 18.111802433747656 18.148759176669678 18.172393509636652 18.285811753613515 18.567837457964494 19.01252743974228 19.49806257202821 19.831595554365798 19.839280776029895 19.47491142700924 18.889375553480388 18.352880561188748 18.05191250257633 17.986185372375456 18.068466150511956 18.26018819589282 18.55427564070181 18.8630005112901 19.00604452863632 18.831054692441825 18.340489477820988 17.688779059655815 17.061080861660212 16.584070125923734 16.32207252780527 16.282145839349436 16.418385353733445 16.655315525902747 16.896946524422432 17.059209473108595 17.13874689676207 17.213132383798232 17.34445048544991 17.533133284638627 17.743380612745998 17.909797565114214 17.975224131796523 17.975896770789873 18.03095802369726 18.215833028433536 18.476608389755047 18.66004756310299 18.634492530535244 18.394288595289304 18.04003219299645 17.67376560968607 17.330480221669227 17.00970698174276 16.744843640259294 16.607199157961276 16.637312842635648 16.805715607459124 17.04857509436754 17.287885091515218 17.423274390952432 17.372040843239734 17.15841764844137 16.93502217489933 16.842055940157092 16.85862148461677 16.868486562408734 16.829828299289762 16.799461267360645 16.828552537895423 16.89054097108678 16.906255971190017 16.826519974510088 16.699736121140862 16.630324270165733 16.66848403301881 16.781563848855868 16.917506609894076 17.067148741272675 17.26498812042281 17.556883299022736 17.95915717596631 18.397476343171093 18.698549856567052 18.693133632996986 18.35597057695323 17.845316248571724 17.38109098519095 17.07632605362439 16.907940587091094 16.80465693117715 15.991936408973237 16.16280248269216 16.49254734718307 16.944206985265254 17.374527894961183 17.57496741570326 17.44401734827337 17.095613961858493 16.763232834464677 16.620408311658 16.699115247758268 16.968567124589534 17.429477930470945 18.071685955837932 18.753973519382168 19.218196200046343 19.27300964951267 18.93376848159013 18.4058785188553 17.95516107117439 17.778220720080032 17.937166626584066 18.335692283674163 18.782252931442187 19.115066236981924 19.248760367029483 19.13423681759115 18.776039522574905 18.29228865155779 17.861411435442033 17.575661413811716 17.386324499247284 17.194831858973078 16.958038479275476 16.70675193179856 16.501595317040803 16.387085403325678 16.36572609456634 16.405323513395366 16.479929583664124 16.599170649664725 16.799059694124676 17.099382128822302 17.438383677637862 17.672968156712802 17.691167438686044 17.517437291081478 17.27265835160434 17.040994963707906 16.819012440860188 16.621335212845988 16.56741904991351 16.790314144299064 17.287520551013156 17.91365375669492 18.488254460071865 18.87367875804095 18.99850019251618 18.864629088047366 18.53730230273644 18.133379062469334 17.80014695181947 17.648919397938243 17.675347341082908 17.766679298862293 17.791044244761125 17.69164187087116 17.546435221256576 17.51795706450055 17.673510433520107 17.87147381764091 17.886213954927058 17.628698139980852 17.207846593927446 16.815139773683786 16.60186638847625 16.607269883797297 16.764467962112548 17.010474331840502 17.38322924594208 17.966629278070997 18.737861230395676 19.51215918030818 20.033764289800075 20.0992976382861 19.668979077992446 18.92743478651432 18.199322384373776 17.752769039282732 17.648861376788048 17.744784814660893 17.848418075485007 17.865082377014925 17.816730051672778 17.778565626053595 17.816862514069125 17.94574923676261 18.116539148628082 18.2631754129412 18.352110344267018 18.377952239963058 18.319821410163737 18.138693207469075 17.83647088484384 17.501765710884644 17.25165139035061 17.122036239248136 17.04812943817289 16.966940230698498 16.90810433391305 16.962607528155612 17.198234161042805 17.598979650893355 18.035929521057525 18.345843778064985 18.47137736128496 18.477066440351397 18.46644792271234 18.539658076366745 18.772256473730263 19.16039556587902 19.577714871488496 19.81397437307419 19.694994311521555 19.223773050956236 18.619393345322827 18.174142840459446 18.026819485225978 18.09802241349508 18.247161044348367 18.427143411955456 18.6476162332116 18.852269644899987 18.90974361356512 18.7129463993806 18.266597236852235 17.684462593893013 17.109953653386082 16.658067616464287 16.41196654370869 16.412055385005367 16.633461517639137 16.98729222323487 17.33391691404592 17.547963509017855 17.622108812766253 17.66525660777036 17.76353568382912 17.898124152530173 17.996052022785 17.995932651537583 17.897338953695826 17.796004032471874 17.827499928595742 18.048086393491218 18.388356855570915 18.70121984760752 18.857278054107887 18.819113072356714 18.631217221426272 18.35180676897361 18.006463683159854 17.612440730108542 17.23112671339952 16.9666490464699 16.887894033885274 16.975793099945683 17.164894018780174 17.382509992785337 17.54044450857954 17.556104368972385 17.43271575543264 17.28668966623529 17.221177620027273 17.19455547078789 17.097816716503736 16.926046679057887 16.787508463313475 16.772873021308484 16.86727433637667 16.975419555807076 17.019076163394274 17.018347479580953 17.05628937655613 17.17471194420589 17.3370008558723 17.476206590002207 17.568490123804104 17.662547146560417 17.842517444604127 18.14576618613401 18.480158252955878 18.640792669638483 18.451409069528864 17.91372894086832 17.222502006675736 16.621848013295626 16.233334850604795 16.032749100544446 15.957478271653859 15.561755077811746 15.848472500100282 16.378563663587293 17.07708297446095 17.744827096544324 18.13132256248686 18.110146809089994 17.78079305775778 17.38672917731264 17.140580697514785 17.109325572703046 17.262454591439546 17.589483345125448 18.104214546754687 18.720652586971337 19.206477807400862 19.325408858234866 19.012068436690708 18.430755377810236 17.88313854578066 17.63891210258351 17.796995801955973 18.23981102577104 18.73590694167666 19.107923407941023 19.28504776848355 19.235233123450396 18.94686868704344 18.48508045546992 17.986242089239433 17.563380330082197 17.24041597821209 16.979246707038133 16.74068096920887 16.51958492679546 16.343294218414766 16.239311613629962 16.192990739339432 16.153564669446663 16.093190993281365 16.051446247792992 16.122847605399297 16.3809659576823 16.778594481888803 17.155619582817028 17.381099849046038 17.46186714141992 17.486764004373224 17.49014024198372 17.419609878134057 17.269473726097353 17.174696654654 17.297764404549824 17.654822488552263 18.10395610800812 18.466928643416626 18.63169822454068 18.590323124198598 18.415576790386275 18.19418389103962 17.991732259526664 17.8734927842578 17.896297523056386 18.03795045474022 18.18051101811102 18.18827871609507 18.008479979067683 17.74316331732905 17.600514031787696 17.69678489734521 17.914087077908373 18.009919917382714 17.847981325902772 17.483101318184925 17.07855374912724 16.800144852012593 16.72124898653962 16.796748564474175 16.965014475127795 17.255704797490495 17.75156354537917 18.445173161470375 19.17458933737336 19.69288168177511 19.781395160590694 19.371900497653698 18.628458573060637 17.879273300408286 17.418576845633517 17.33774992473386 17.51344473226811 17.756142349333494 17.95371602232728 18.089172930338066 18.186401743670213 18.26905322908242 18.34453808284432 18.40753281517849 18.4543329427827 18.4793928962198 18.462029168757155 18.358409520535023 18.13191935676532 17.808134783219106 17.488395402591628 17.27605998728574 17.181025555868512 17.11784347172494 17.027127320575417 16.970401186643528 17.062674453037282 17.356260950532583 17.800329356372508 18.2479719269465 18.54420387158413 18.6462749723167 18.61968141386091 18.55656639015995 18.545927737487027 18.668230964914198 18.942957027662732 19.2614432208012 19.408979564080944 19.211865318114235 18.710969390579752 18.171919277942905 17.883321289684947 17.919487783209313 18.123351828322736 18.314358352322422 18.45172550462188 18.57378944060701 18.66414349654552 18.64569311856989 18.454601518115453 18.08376906786418 17.588540494934136 17.066001006194078 16.629209739395556 16.39003829975522 16.42353890603084 16.723064664090955 17.186184387660557 17.632901661231838 17.89932842830953 17.972356635969685 17.990651559454868 18.071259307177552 18.18739277112205 18.22943224849809 18.123959652301092 17.90223466424769 17.696020737059676 17.645329786596772 17.795205720405026 18.08851776381258 18.419765546806428 18.690049727028466 18.842813045571347 18.863561408570607 18.753933772480387 18.51493400338945 18.16676955643158 17.78591931534025 17.50050262283314 17.4003341833648 17.462998525333713 17.600899307444013 17.73680187099564 17.81495601686846 17.799129979326523 17.71317117441234 17.646991110494685 17.649296155685605 17.63620816224424 17.485683571098434 17.203163363907315 16.92845816795943 16.800228599391 16.847218389987624 16.987059497184035 17.121938191055477 17.23651479847358 17.380824523433887 17.58234731643166 17.80175467097819 17.961205518243588 18.022404142373205 18.04011639505376 18.121580047449914 18.314232054968944 18.51901539177384 18.534470969371615 18.21056567069905 17.575838055663738 16.827065742238336 16.19321152512984 15.784164516941635 15.568994905911074 15.489908415065125 15.581759732744466 15.846897160352313 16.40545071684803 17.176871430164717 17.93412959640112 18.406300299400844 18.45143425611462 18.145665610593863 17.719571703116188 17.403611561369466 17.291739182230902 17.351007387505184 17.54801328809537 17.902894048847696 18.383332354332424 18.812876533984664 18.955545478266053 18.688292635504034 18.11268042082481 17.51621838485733 17.205454593556293 17.32241769365682 17.769196248127646 18.311282166614696 18.758533695400875 19.031924198039352 19.096530092788292 18.92200594252293 18.52816615826309 18.013133286120013 17.50482188026498 17.087584799137076 16.77095937085172 16.515879750052907 16.2946453528691 16.122843381013414 16.0215631371158 15.957849109117015 15.862965586727105 15.71254275061593 15.573501229626414 15.578488062822966 15.82725922120379 16.27694940920903 16.76554231174026 17.1604508710964 17.450440083896563 17.688662414655017 17.874452748468933 17.93158458615061 17.8417879133422 17.735969052599327 17.774781166983153 17.969215068174016 18.176646473463116 18.243229384779223 18.122389808106817 17.900548561446655 17.724497615988668 17.684880102256482 17.769215881444072 17.92695264390059 18.131008473472363 18.341313364801096 18.471972532490447 18.430719105156875 18.19007377361306 17.85809456478959 17.650018740870003 17.707921045611634 17.94741821144718 18.134622241201804 18.100109220357705 17.83842734656054 17.465258913854615 17.142111514424595 16.97410914180804 16.948955524467014 17.012237109729185 17.182021257573222 17.541610781195757 18.111550331708774 18.76706530280361 19.27953817303474 19.417740258354225 19.07765791857612 18.387638323994533 17.668701995701646 17.24038267652664 17.22414753510092 17.506246420804 17.878552076920254 18.192002874290573 18.39439927291808 18.490868214614867 18.502400676898656 18.4496315952236 18.364718282192563 18.294676776256416 18.263865422674762 18.24751784220045 18.181130373567207 18.01074305002204 17.752441567926397 17.499427122518405 17.347083701564465 17.299108612511247 17.261136078742858 17.170765599894892 17.104058957775802 17.190599284845216 17.47658104219098 17.899344190298212 18.316833929425144 18.588939965197138 18.670778816189525 18.60307075193209 18.454236708834305 18.31017179180375 18.27568290062783 18.412245733558866 18.64137816446188 18.750221695439958 18.560079412098897 18.12378245656789 17.71633710117396 17.597749914124112 17.782417524980822 18.064042350604193 18.25099851357133 18.322781618736073 18.347524955452112 18.341376699829777 18.267685913145247 18.09136570732188 17.788262054180727 17.36345686227711 16.882459276356062 16.463252245682238 16.238010304267547 16.30159487739977 16.65893600863471 17.20099993295902 17.721280473155463 18.026118136723873 18.09325943335886 18.083173063790404 18.145122186219215 18.25967617945288 18.295720112577214 18.162625257764365 17.894803332897546 17.627420467392298 17.489978393762122 17.52260013515424 17.69560240278759 17.95881143683943 18.25676515141377 18.529432575438847 18.718890874996312 18.779432098046712 18.689386318648864 18.46724963533816 18.193207100251648 18.00286901394589 17.98763451821514 18.099427219130913 18.205892559674286 18.216059680194363 18.124385109634346 17.98035410294531 17.86513089418248 17.855403966484495 17.938513489010223 17.978740705839147 17.832503176166018 17.496457748168048 17.11473876869559 16.858195002930426 16.806444702675588 16.914870820529682 17.09099970151962 17.294475806019495 17.537459007158116 17.82170808925128 18.0991959113364 18.288381342609217 18.347000266408944 18.328971532940844 18.33828269085731 18.413889126643117 18.466469737240015 18.34352955651426 17.958166040276673 17.361225987845135 16.710781820294823 16.177187541015176 15.836986616034446 15.647756471702916 15.550594171777169 16.020554377476298 16.16429861772927 16.599966284215203 17.26973243605981 17.95541918698453 18.396202541077688 18.448867515658357 18.16211593485314 17.734776431695398 17.39322530918796 17.2470628339776 17.256287917316865 17.35106878795482 17.53468105419781 17.817080732244374 18.099821081522716 18.195964188209036 17.963541638746158 17.436632589940828 16.844951801197848 16.490380352950687 16.55343253416537 16.98347711729904 17.56912078828329 18.10790312908615 18.495520218762763 18.685105060259797 18.63981844591673 18.35632710519721 17.901537908881348 17.398979711339553 16.96286062735982 16.629717150786142 16.358815646888406 16.11321059255678 15.912762395429025 15.782019767794434 15.681030914637407 15.542463690270784 15.361220490490757 15.222645239825102 15.257434682270906 15.545401226899148 16.031792693729702 16.572838546283513 17.06213824620336 17.482591706956708 17.857870982757138 18.17002420730173 18.340147005382356 18.33778103186461 18.2648444105722 18.250625172074066 18.285918372714896 18.23289739995809 17.986010694592583 17.59149565727892 17.235581595909505 17.11573131549451 17.295918530486357 17.669578016368256 18.066586093786658 18.375348583361287 18.549209372068823 18.56726105990626 18.42094144869768 18.130425199928833 17.79923234571033 17.612381277043486 17.697951306124715 17.98661267622442 18.259636454111526 18.332017206455873 18.154173880333577 17.803711421267018 17.438614450884486 17.1925062741736 17.08253702508506 17.05768684207634 17.121509071062384 17.35633903962891 17.808409452159193 18.388863213379572 18.892906891655667 19.086467304287485 18.832558386759622 18.21758086741293 17.548853204986422 17.16779150212245 17.221352234614123 17.596973611749252 18.057759084318793 18.412440273988143 18.581860974039753 18.57669788900766 18.444320277482998 18.23203750065555 17.996525466501108 17.811912983880216 17.725628323212 17.72398844347442 17.738280952073364 17.689479855640478 17.553061385842984 17.390125324116273 17.29427464514802 17.28943851897023 17.294624729705 17.24414364994066 17.204647679125255 17.294111669017575 17.547795470701583 17.909980582987735 18.268056040479046 18.50459466475229 18.5590934351517 18.433723350159006 18.178139804453462 17.893178298278915 17.719626729254465 17.757025142284082 17.94863610683856 18.0823197345028 17.970665492055776 17.654777185397208 17.38693174710709 17.389228541539357 17.64273682496015 17.933361613481903 18.083005354580333 18.09010518773947 18.039762813899625 17.965382058434216 17.851636001615386 17.678479840196427 17.41436789756044 17.042575549825102 16.616219464044256 16.250113134609094 16.07069143308792 16.170177966645877 16.55882333287281 17.1305864373026 17.671366168747156 17.97431795923515 18.011173721887356 17.95635599576796 17.987497990563117 18.10365793624723 18.16876202732746 18.075571120053237 17.83992472663026 17.57434645442101 17.386811457824656 17.3141408973608 17.35326962159407 17.50253728778439 17.748273434035315 18.041455042395842 18.308237925937785 18.481269617314375 18.527545296315235 18.45892450651738 18.344359198580946 18.30967636358342 18.43389524207239 18.634106359904365 18.726371320332905 18.601036061620555 18.304279883196568 17.982307879109012 17.789334538662064 17.800210666055577 17.945509646433134 18.0416975536785 17.92984341139476 17.596892892575774 17.17433485079076 16.83809190181089 16.69975736165143 16.7570466717241 16.943318492362415 17.209359785651532 17.532329970962792 17.882707212368448 18.20297702773075 18.421067938531976 18.505414580854172 18.50069966193079 18.476062406001194 18.439892444252074 18.32609443874854 18.069359246467968 17.676092890292715 17.218905621436484 16.790656769410187 16.471527075422443 16.285167032218403 16.172502933708813 16.069302536564926 16.728518625826784 16.730786415732588 16.9