# vtk DataFile Version 2.0
Really cool data
ASCII
DATASET STRUCTURED_POINTS
DIMENSIONS 200 200 1
ORIGIN 0 0 0
SPACING 1 1 1
POINT_DATA 40000
SCALARS temperature double 1
LOOKUP_TABLE default
18.16832332334861 17.948722016721927 17.69974251078735 17.42960973713293 17.150485651164818 16.879825387455252 16.6404578585147 16.4580158770639 16.355532036469288 16.34670790139062 16.4303581673673 16.588260716279574 16.78749592646627 16.987039694721293 17.147209461566 17.239563581495492 17.25426352783803 17.202287747274163 17.111502439408053 17.017865528667162 16.954806645719223 16.94423241135216 16.9916769511637 17.086527825581182 17.206694051468492 17.325892289119366 17.42106002060126 17.47746681439629 17.490074802262832 17.461395592452995 17.397716017982606 17.306134998065772 17.19395760913332 17.07021987800951 16.947649778571225 16.843080156968977 16.77522863692442 16.760187929722104 16.806170965351846 16.90955949327861 17.053975650588008 17.21306856875225 17.35636639949417 17.456432951247006 17.495155440294898 17.467418307808373 17.38144053513388 17.25617442462666 17.116881194537726 16.990074088451728 16.898649134162678 16.857705391864695 16.87162911975913 16.933275341979286 17.02594875349017 17.128044619139647 17.219026875365255 17.284694380411008 17.319965179461153 17.32854909446023 17.320197751639274 17.307006325417483 17.300179594274873 17.3079685827068 17.33467725317226 17.380265115756185 17.440294108752763 17.506457594977455 17.56813348395845 17.61502747020685 17.640250726842794 17.64268064225422 17.627612689536463 17.605469071629578 17.58919521451801 17.59140029796819 17.622078302692614 17.687155640405354 17.787664313069612 17.919356333387626 18.072919070059235 18.23517154690479 18.391376340384422 18.52817444048439 18.63609293586469 18.710553049525 18.750953179282945 18.758415732817326 18.73358606546152 18.675922631976146 18.585084041139254 18.463726486111927 18.320052762557086 18.168431313863575 18.027370714503082 17.915505365763785 17.847202076793558 17.82942548622114 17.860722773515146 17.93220617654072 18.02980158767378 18.136929195235833 18.236950817295426 18.314953671171452 18.358771402463134 18.35958376143705 18.312692603112293 18.218747903029666 18.08486786304168 17.924495799040567 17.755230432154757 17.595178440110168 17.4595669950228 17.35931507611178 17.301891752914326 17.293131247286784 17.338011728287054 17.43920046509699 17.59380566810178 17.790169964189356 18.00691364814634 18.21563828995353 18.387095204225048 18.49888147620936 18.541672275103753 18.52130574676105 18.455752543799555 18.368292534412856 18.2797892909317 18.202955327454347 18.140168683220633 18.08475518371544 18.02460689129764 17.94675967419162 17.84172946889781 17.706644601599557 17.54647471565909 17.373085674034378 17.20246885286296 17.0511173398421 16.932861001606312 16.85728538433898 16.83009968752925 16.854761225544294 16.933878006306504 17.068967441542053 17.2581788988171 17.493056207050344 17.75638002939127 18.02287117812767 18.263117649695868 18.449380766682783 18.561035586346204 18.587835434043146 18.53052561953579 18.399536974696236 18.212797107528015 17.993196660320688 17.765686385868992 17.553985493520525 17.377379796052914 17.24845883964649 17.172391676519368 17.1476127164397 17.167208245956928 17.22034468438033 17.293635155993186 17.372802722474407 17.444873999628594 17.500496829874994 17.535397878695438 17.550076174185772 17.547668489911796 17.530997162838716 17.50034374184654 17.453071620704883 17.385149261749735 17.29366622585741 17.17917304121174 17.047082359079223 16.907940640652843 16.776674794867343 16.67092491805444 16.60858880636471 16.604914891772456 16.669741683007885 16.805508726660918 17.00639271249936 17.258598805935122 17.54173140531858 17.831246544940882 18.101928483015804 18.331898759734937 18.506059309635848 18.617665607517097 18.667352959925466 18.660178651815748 18.60226347419824 18.49864073314414 18.352936875170695 17.885377827036734 17.69706703213427 17.493322956762015 17.27750742474963 17.055944025083093 16.840269092072347 16.64854584266951 16.5035014184042 16.427475665710826 16.435498737133685 16.529091294105367 16.693253307087186 16.89799830545064 17.104401770433835 17.273842716121916 17.3780011504629 17.406505710023282 17.369470700859893 17.293786770770136 17.214360716325167 17.163376155439124 17.161168983436603 17.211426016292123 17.30174289357673 17.408835226998598 17.506343814613306 17.57247566492338 17.59491410781383 17.57162558811219 17.508056351280402 17.41286130452471 17.294746059957244 17.161911878093914 17.023697443672813 16.892577542482915 16.784545867179432 16.716950533820093 16.704270327245275 16.753344098440717 16.85985989975489 17.007525754205 17.17049796138658 17.318609588653384 17.424037567706776 17.467575656637166 17.442819395881997 17.35727022930049 17.230336238490924 17.08901347583996 16.962356416878656 16.87574167004109 16.845774505583865 16.876765821810913 16.959826551498033 17.0752820822802 17.198082187644534 17.304615743574324 17.37864246838389 17.414423838545755 17.416372089772327 17.39593859298841 17.367331849975493 17.34367556579961 17.334544203907228 17.344929216856347 17.375124051089877 17.42103588305783 17.47486696900648 17.526483996254626 17.565706946297087 17.58519937131026 17.58304384090613 17.56394572628687 17.53851500345876 17.520927531440144 17.525886952045507 17.56580445709298 17.64860957508946 17.776128731597208 17.942971309661786 18.136293806022586 18.33714304203697 18.523778417067202 18.67641598920633 18.781800656834026 18.835676462165512 18.841996672022233 18.809296818772594 18.74616380656994 18.658225400809478 18.548171171573884 18.418496195873505 18.275042458872125 18.128989115078085 17.995916402973204 17.892257953487007 17.830802151425594 17.81718601905255 17.848588932120673 17.914726619656793 18.00044230191699 18.088916678292875 18.164591895664728 18.215145566050833 18.23228017742242 18.21168565386621 18.152936621724947 18.059848114665 17.940974759926053 17.809237796874864 17.67991587601827 17.56743417540538 17.482544421335206 17.431495030921624 17.417475838056102 17.44296416157299 17.510885718238182 17.62327415418152 17.77782199222555 17.964261873854504 18.163011485109404 18.3476946752323 18.491369236330367 18.574346320571678 18.59036256445671 18.54829469559885 18.468535314446417 18.375579159751123 18.28992142709743 18.222260958107416 18.171583253816777 18.127036617197113 18.07245278716841 17.992006458540985 17.87550935054157 17.72197637652129 17.540481536070285 17.348064408878987 17.165409519649216 17.011816862717804 16.901237680717983 16.840695875931214 16.831364076652093 16.871318733193352 16.958167939565765 17.08985998396121 17.263110248961837 17.470449019102627 17.697927024492916 17.925298946945453 18.129116540403956 18.2874940698502 18.384461617273118 18.412304555195245 18.371632176910417 18.270069866401883 18.120657699386317 17.940381405931465 17.748554224422712 17.56469018875223 17.40602506069121 17.28533611703244 17.20966591510633 17.180048393076568 17.191907527080193 17.235851320662544 17.298966940290082 17.36690873908204 17.426709294475902 17.469536341842183 17.49217984942503 17.496396297538602 17.486307354284996 17.465182188618254 17.433311679813798 17.38799816304285 17.325422505814743 17.243211295742313 17.142474017696518 17.028719618806054 16.91173035903627 16.804694841182897 16.722760565517547 16.68105583096948 16.6923681633446 16.764887634639926 16.900450099362693 17.0935240190565 17.3310295902752 17.593154550927828 17.855481512054073 18.092576017746058 18.28251550144942 18.41100840357966 18.473463875286438 18.474092080714186 18.422550690833177 18.329855770258707 18.205383658370813 18.05578519053987 17.59381317998898 17.45146831824457 17.30763182356851 17.159780212027577 17.007382217193847 16.85536464244463 16.716383975297536 16.60997146253322 16.55789208542865 16.5770285292688 16.67246822543697 16.83349696011879 17.034144053406877 17.238484201688497 17.40951013731013 17.519169024376687 17.556383824057306 17.530121472771846 17.46612907094485 17.39833343265778 17.35794737121281 17.364060690835224 17.418709326395405 17.507644620234064 17.606047076229217 17.68687562155193 17.7288183064025 17.72114897221925 17.66418642538312 17.566032066119597 17.43789090164811 17.290615542644666 17.133928298979548 16.9778672688003 16.834637107911824 16.719001517259773 16.64641718083602 16.62942459417276 16.673636695102022 16.774792433130163 16.91796932116153 17.079440315694846 17.23096509861763 17.345616480173668 17.40371268642729 17.397276584824926 17.33182224538353 17.225074727034805 17.10308493825483 16.994715201406823 16.925575938283583 16.912476793425803 16.959557290832215 17.057295455018117 17.185100793804878 17.3170410750588 17.42894219104479 17.50445541983908 17.53815128650514 17.535006568188138 17.50707467807856 17.468997547728485 17.434046689530735 17.411714653871385 17.406943027616666 17.42037539259054 17.448903978866735 17.486211255607788 17.52359340054762 17.551576643033265 17.562451768120788 17.55310138274902 17.526969766493956 17.494199830916138 17.46977222279301 17.47034680854013 17.51082097297294 17.60128664005761 17.744570155628814 17.934454621933664 18.155103488780533 18.38259590222394 18.589165599307414 18.74954418482721 18.8473777520665 18.87904626183985 18.853042236732417 18.78511493158996 18.69154409082503 18.58385241222125 18.467350532951652 18.343654098655065 18.21510559156784 18.088192246923406 17.973952560807096 17.88527295025411 17.83264595884752 17.82049938910526 17.845576943495153 17.897710241764937 17.96239372668932 18.024149708807705 18.069636372856394 18.08966713466783 18.079794034964475 18.039797905335067 17.972928255606995 17.885565830786618 17.787168274346623 17.689633273818202 17.605386924686933 17.544598083503956 17.51299495215383 17.511744652791172 17.539568278763255 17.595633886742426 17.68105972629213 17.79763866085169 17.944167073801353 18.11242299018906 18.285419149279704 18.439699364598347 18.551501314593047 18.604494684812515 18.595658706830456 18.536457637688965 18.448625181132574 18.356392103722794 18.27843087384635 18.222470595927458 18.183984105657952 18.148708555810607 18.097791953689057 18.01403155351658 17.887600197125224 17.719716093496988 17.523116043084933 17.319095139884052 17.132046475507252 16.983362947515676 16.88680410688609 16.846836570021093 16.860218631002116 16.91969870257689 17.01777880154495 17.148595898539714 17.307153585997995 17.48678447847187 17.67683440013229 17.86239116508865 18.026530257533775 18.153942873564468 18.23405330972688 18.262285555781997 18.2394811788019 18.170533308885677 18.063348717068795 17.928446265239273 17.778672157890067 17.628358393929897 17.491756117439476 17.381151544227887 17.305204559222116 17.26777591064464 17.267271223332443 17.296625942001032 17.344293799739138 17.396523594313226 17.44061255025116 17.468044317861015 17.47609903321932 17.467083360414826 17.445567857533078 17.415162559065823 17.376592422136923 17.327951390285566 17.26665489471851 17.1917569630619 17.105454605969378 17.013420721957267 16.924303271175663 16.84883706553594 16.798720011115396 16.785196877062187 16.817396597170404 16.900679403155657 17.035275545262103 17.2153471177914 17.428559011415377 17.65646262436155 17.876234126174452 18.064109013142957 18.200041325507353 18.2721184160191 18.278882744788458 18.22845791115033 18.13492021146101 18.013678346613723 17.877805223193963 17.73627769196539 17.332465572163716 17.244440154505554 17.16732708659062 17.09241682727693 17.012058066285647 16.92424720454961 16.836088335725993 16.76388102453445 16.72891921494206 16.750204938076905 16.83683641691609 16.98299910237772 17.1674712616722 17.358071813660374 17.520019343629972 17.625886985118598 17.663973893578607 17.642005646262493 17.584492593064315 17.524441617327817 17.492352965662906 17.50644775095391 17.567450976983505 17.659404216852675 17.75575367828054 17.828188816623932 17.854951045957225 17.82580608372957 17.742418943278047 17.61489778365514 17.45684644332421 17.281540678033426 17.100679623196946 16.925349865393464 16.76756498504768 16.640708318109006 16.55816846899262 16.530589212130554 16.56278508807388 16.651395120533106 16.784052399919172 16.940505406833502 17.095760042693918 17.224817464289142 17.307996647201506 17.335423879857572 17.309365521549836 17.24372617574226 17.160894433229412 17.086740216198 17.044804336867273 17.05080539973347 17.10873301167769 17.209800176720307 17.334955005655246 17.46042349079185 17.564449750925117 17.632849884153714 17.66158154043602 17.655891528266615 17.626967138918264 17.587755510683724 17.54953719843344 17.520136947728695 17.503721675411445 17.501421045152373 17.511862041809586 17.531203274230865 17.55305251394608 17.569148705617916 17.571423015154604 17.555112712976836 17.521658012797687 17.47991913085492 17.444998298260757 17.43507870095676 17.467382176199468 17.55425001205758 17.699851282306707 17.897804957985983 18.13033001932993 18.369942528645716 18.584412777273982 18.744370080819763 18.831217232734545 18.842103155886996 18.78951500752573 18.69544161364815 18.58276299581455 18.46790353427836 18.35794469087953 18.252820109308352 18.150502443888303 18.05183734431096 17.9624370448406 17.891072467112284 17.845925781464548 17.830857219463407 17.84338098933266 17.87495543205296 17.91320056343494 17.94509910705484 17.96007509579716 17.951997659572093 17.91965430884638 17.865980870253424 17.796894843532854 17.720467080047484 17.646411260498844 17.58517883026704 17.546093910652676 17.53495851768707 17.552512834247214 17.595047245881723 17.65718240801767 17.73525764728151 17.829104374888875 17.94078794235859 18.070716553596768 18.213250590013438 18.35458260429428 18.474765407646764 18.553687445303847 18.578554272299208 18.549306554608595 18.479183527009166 18.390004142460274 18.304305432277012 18.237730814060853 18.19445854204201 18.16674357279237 18.138057058186522 18.088525520707286 18.00120343913553 17.867677681508948 17.691501268311086 17.488295410622374 17.282261799376794 17.10008085811857 16.96418094150991 16.887652142613167 16.872471895105498 16.911398926245692 16.992376226362385 17.10324499542737 17.234597847092584 17.379785402251763 17.5328133066655 17.686063623539553 17.829658135288966 17.952960965186485 18.04716700530154 18.107255823257407 18.132217690476626 18.123794427712205 18.084949805254606 18.019209773776588 17.931106045306052 17.827047608098965 17.715713549285038 17.607505830347666 17.51318902830804 17.442108657937204 17.400334496649318 17.389058204340554 17.403754692289088 17.434744127310374 17.46947052629751 17.495993561324546 17.506344940582604 17.498197080101722 17.474046915316727 17.43847643949365 17.395149368110655 17.345258916477423 17.28808799455367 17.222953392938297 17.15109742352377 17.07647515057417 17.005361823040296 16.945396273069793 16.904646887609292 16.89083147102876 16.910515832305972 16.968190876932447 17.065338790156797 17.199629780915885 17.36426802217288 17.54753210756871 17.73287507261825 17.900266127096643 18.029263832238065 18.103433345603527 18.114635403000168 18.06527736335898 17.96735226962591 17.838655110973722 17.697909654658677 17.560740335426036 17.437464705289308 17.135884291166796 17.10250785621598 17.089274954876096 17.081944391295895 17.06648753744704 17.03463996136928 16.988430829815456 16.941150823208105 16.91359969920127 16.926716325535793 16.993416914454293 17.11275005682164 17.26847975081649 17.43268513852515 17.573483437475936 17.664703654524875 17.69443291339477 17.669292266377845 17.612505439989953 17.55609851718877 17.529946443446246 17.55169040738598 17.621151060856416 17.72099643243379 17.822987223892923 17.897148335954984 17.920414579083786 17.88186386291304 17.783282011257104 17.63581099491159 17.454926286143472 17.256252838089654 17.053688716471708 16.85967709558952 16.686298998103705 16.54576451151544 16.449644302582794 16.407077716357847 16.422647377305854 16.49459136036074 16.613859419232185 16.764442710343182 16.92532092165553 17.07402849411638 17.191205063022988 17.264891880798007 17.293217372440402 17.28462965679761 17.25565685918417 17.226817231751628 17.217582033681673 17.241434635733967 17.302261792035225 17.39333070856644 17.4995098429425 17.602152307326048 17.684824048819998 17.737667445227267 17.75893974624589 17.75366034461227 17.73050242164348 17.69851564914264 17.664940906488322 17.634596517040947 17.610468772915578 17.594570203405745 17.588108341637117 17.59062067230944 17.598695127262655 17.60557081607756 17.602693071232203 17.583152531127446 17.545599984608312 17.49668390897519 17.45072761698518 17.426730012944777 17.443843381177544 17.51665227542704 17.651104053435287 17.841578459970467 18.069771950051077 18.30645001523976 18.516846887333404 18.669118375547974 18.743336756742007 18.737370829358834 18.666731616138847 18.5580620764779 18.439072554208895 18.32950494885103 18.237004011676877 18.158999693049513 18.08857935519956 18.0206817255422 17.955502601759243 17.898063708163374 17.855018019587646 17.830813475726707 17.825097653000032 17.832268574068955 17.84306074995758 17.84737046431664 17.837211890910194 17.808751518165757 17.762840095691622 17.70422504526454 17.640226813470797 17.579612549052346 17.531729875899536 17.505346167757494 17.50678957226532 17.53788902253939 17.595020129638392 17.67037761785217 17.755321101830475 17.84414489327713 17.936032765265196 18.033792497054478 18.139788347508468 18.251253238726445 18.357833973848553 18.443312576866635 18.49128218111287 18.49223675520144 18.448444538864138 18.37392558475173 18.289389571533214 18.214553787212097 18.161286981588898 18.130114574872817 18.11073296619162 18.08566607387013 18.03566197366817 17.945508512663732 17.809031844568757 17.63200686155728 17.43192108697285 17.23430160115168 17.066478617814276 16.950691097287045 16.898818245759742 16.910509613921533 16.975209823472976 17.07699630434373 17.1999789208237 17.331916718855563 17.46486036337662 17.593414566734587 17.7125047730625 17.81647217027407 17.90001992241511 17.960013789635802 17.99653784315687 18.012286821103736 18.010702584261573 17.99416720762896 17.963425517353574 17.91847265611052 17.86020368801396 17.791811013560327 17.719242381357297 17.650552240935156 17.594313152189258 17.55741418335772 17.54278888088043 17.54791179204677 17.564954973454366 17.582962869092892 17.59138626708254 17.58342625675154 17.55756632179505 17.516615329779608 17.465026918722494 17.406256786990298 17.34175522842019 17.271964161370054 17.198302644157074 17.124605010786716 17.057110271173322 17.00323570579241 16.97004919613914 16.96318916881464 16.986364476834652 17.041152527604947 17.126848660051177 17.240329455487363 17.375937145231145 17.52529582108965 17.677041628768187 17.816825184933695 17.92831054471387 17.995732163859977 18.007710924263463 17.960961208144912 17.862091242902945 17.72640645609277 17.57411028479518 17.425540242203905 17.297215533717665 17.19953809002764 17.028106577409343 17.042236698822343 17.081099508460156 17.12646700813064 17.15966837450034 17.167761339579084 17.148836983621052 17.11368569511257 17.08247234502053 17.077435665536935 17.114466070464935 17.196764946772642 17.312784235256707 17.439094700263418 17.54737949906048 17.613561550491276 17.626207149251766 17.59115766132744 17.53029094511208 17.474390762786452 17.452514867442197 17.48180875167762 17.56157482874321 17.673625008326916 17.788401382846203 17.87422255941346 17.906149063180905 17.871550235949226 17.771088849541183 17.615765162869614 17.422059021999047 17.20749700746283 16.98812487211596 16.777986526233732 16.589665588581372 16.434755739551107 16.32363885187255 16.2645825870186 16.262473159294213 16.31749249363564 16.42404124172797 16.570363263344547 16.7394452717847 16.91151296411127 17.06776832983434 17.19429809534725 17.284855758828762 17.341654822233696 17.374065521882926 17.395679812689774 17.42044341795905 17.458695739821128 17.514190572164704 17.583227232642404 17.656449679378586 17.72268373500228 17.773088980632945 17.803742347742613 17.815723528463316 17.813173673337523 17.800727420503762 17.78172205446214 17.75788456875012 17.730315949184167 17.700939367036405 17.67333499090621 17.65213446847204 17.640911396353633 17.63954337556085 17.642736796716544 17.641145717165298 17.625182895860988 17.589967316988023 17.53901822273444 17.484893951597094 17.446527375521452 17.44441296284143 17.4952381697085 17.607134805130237 17.776237116920022 17.98526696579555 18.205189427481972 18.400747282051746 18.53932643778474 18.60058847252871 18.582978763278017 18.503838451106283 18.392531424428995 18.27941099971198 18.185570840215597 18.117796411691593 18.070258441093564 18.031045426029944 17.989625408899542 17.9416600051149 17.889642416565867 17.840123679294162 17.799601387266296 17.771149623575738 17.753027038503962 17.73947041337411 17.72306450861949 17.697601199623932 17.660275286775644 17.61248392754767 17.559260590143168 17.508011683838376 17.467250105988334 17.44545885648812 17.4496963954069 17.483717953927034 17.54618613098959 17.630197155108842 17.72506364121054 17.82004548414567 17.908331863882005 17.989074442655674 18.06611283132496 18.143817448161222 18.222221108888505 18.294302989903837 18.347391467930287 18.36845958457532 18.350739219356726 18.298039171298562 18.224237422326194 18.148066958907126 18.085832023328347 18.04548466416316 18.02429480599708 18.010310335186908 17.98637531906155 17.93520332814266 17.844374327217533 17.71038419336421 17.540836387063482 17.35391696166075 17.17483683702443 17.029915947297518 16.939976296410183 16.915188865689437 16.953173853998244 17.041001971541245 17.160173122954703 17.292369521667922 17.423545179112637 17.54499574895591 17.651872691726783 17.74098251559818 17.80971458112049 17.856656808752543 17.882944286608147 17.892802129202497 17.89243591309053 17.887726858921877 17.882063025104543 17.87551061400669 17.86565084266075 17.84949894828192 17.825532988249176 17.795016991044886 17.76217615990141 17.73311259455561 17.713669565069747 17.70688799829745 17.711129480968516 17.71995725852928 17.724168721682116 17.715197924737843 17.688200275471807 17.643202195786134 17.583826399063792 17.51460175763411 17.438717967111618 17.35766553847979 17.272790444083764 17.187428018886376 17.10796775718342 17.04308941076282 17.0016991944029 16.99077245620967 17.014025648297608 17.071579845043253 17.16025838181211 17.274146238817004 17.405242017689158 17.544094512334073 17.680241332234452 17.802351849857953 17.898354551529437 17.956201656037376 17.96580473010049 17.921916578348934 17.826800332453022 17.6911858283104 17.532681067447825 17.372110725166824 17.229263777798987 17.119518089427185 17.051888698634006 17.017719595864538 17.06731995265434 17.140677189676573 17.217651721898463 17.277338547797623 17.304385187567483 17.29462709743009 17.257151659126897 17.21133364755734 17.179791801468934 17.18009164961547 17.21837124854678 17.287031234118018 17.367072504322856 17.43430338580873 17.467629878877002 17.456911539610132 17.407609324991192 17.34012564775247 17.283507954456883 17.265487173122644 17.302527005807043 17.393696022190035 17.52059103702911 17.653030986677305 17.758043033596778 17.80872576248867 17.790113062945082 17.700715274271467 17.550202266926277 17.354975083262534 17.133697521489268 16.904236021513892 16.682361564396313 16.481669929727243 16.3138973308712 16.189063668262932 16.115249120577207 16.097988285818733 16.139302592761272 16.236539822737466 16.381516095434268 16.560681355132633 16.75679774358784 16.951919994835862 17.13074294395799 17.283168555199065 17.40536791533821 17.499278353996043 17.57089651602189 17.627825390682425 17.676618178632268 17.720714892727123 17.75987673074977 17.791513543501523 17.81322319159571 17.824981446784072 17.829554622375213 17.830887924917864 17.83159231970949 17.83120793079103 17.826352798858398 17.812698845473594 17.787743953426716 17.753002058752102 17.714472792115988 17.680885944462155 17.66012585617828 17.655239768068615 17.66204275207348 17.669956327263137 17.66623621452978 17.6418894178368 17.596550314763736 17.54009809425928 17.490467084260768 17.46875756891578 17.49342746456676 17.575007835690382 17.712208485651317 17.89017056204715 18.081876596578066 18.253529252162494 18.37341423908693 18.42172772821623 18.39739904022748 18.31842505199549 18.214900918554747 18.117506570577454 18.04658504347865 18.006602774714484 17.98788103927398 17.973809716665567 17.94943907848951 17.90746335267468 17.849639306628692 17.784142428970565 17.720932372723862 17.667435453540634 17.62612330545389 17.59450458511047 17.56709401945867 17.538284884897507 17.50486406576641 17.467265577104815 17.429410704593423 17.39765766650691 17.37950169392358 17.38223312911189 17.41134141440263 17.46861678071749 17.550582763557426 17.648384177911865 17.74988721194374 17.843558587236238 17.922442750550452 17.986147239329345 18.039563705173357 18.08874021987721 18.135997868281716 18.17708289828893 18.202295209726433 18.201376957570368 18.169622064421425 18.11167892255871 18.040686623195068 17.973077576297513 17.921816092104145 17.891428060769364 17.876752414949014 17.865200078331164 17.840961118855265 17.789568656524686 17.701882593235165 17.577017062941533 17.42372419383674 17.25964164759977 17.108088432846266 16.992841552980465 16.932215774381902 16.934321810051177 16.995228197153043 17.100798532492668 17.23149414450696 17.368097302709188 17.495934431369417 17.606145381876793 17.694345259256348 17.758461995063808 17.797606657101493 17.81258319545403 17.807125394857295 17.78833721490013 17.765459131331912 17.74734067040765 17.739875502231673 17.744620839176083 17.75909296905353 17.778412947820932 17.797522020150712 17.81313857803314 17.824790154448745 17.834506484113373 17.845172483448145 17.858157561147735 17.871407034617235 17.879210122909473 17.874065210917305 17.849791384424982 17.804140203745572 17.739366956852795 17.660499390381393 17.572559997784666 17.4786822526392 17.380386401988616 17.279704485580766 17.18151748376085 17.09435701159424 17.029037719571722 16.995896319404125 17.002078081651085 17.04993432483162 17.136729654060208 17.25526431791892 17.394966586301386 17.543208355022458 17.686668660569214 17.812496028487427 17.90907337717744 17.966507821765454 17.977305279104524 17.937631601210203 17.84899124440402 17.71946897974014 17.563502186912284 17.39976564854847 17.24778312527738 17.124545180506427 17.042173570771908 17.006754402929943 17.095623432221174 17.16735930375872 17.256296424864633 17.34246145687519 17.405262262786 17.429445977298336 17.410543196217365 17.356947922134083 17.28719210059088 17.223334139582864 17.183191092716722 17.174425957089568 17.19241699199572 17.222301070774353 17.24437270761862 17.241270369629298 17.204873516706257 17.140583550507305 17.067068182151097 17.01092707053 16.99777004266216 17.04291993523805 17.145338812208692 17.28709276175086 17.438348147160905 17.56572970136397 17.64087065989901 17.646413187776737 17.578117813065735 17.443343997438188 17.257305848477184 17.03885064381556 16.807099061136885 16.579486632514893 16.37103105931663 16.194324492604704 16.05978141976024 15.975807959163657 15.948626571269262 15.981575684983484 16.07398272298471 16.22013602105028 16.409117924761492 16.62598842459 16.85410886646427 17.077767669532108 17.284196214134912 17.464542508674985 17.613928244068795 17.730909087443624 17.816537265948654 17.873201082553145 17.903673780966507 17.91097835404159 17.89926090724377 17.87494575533825 17.846824169103435 17.824182192500714 17.813475607339328 17.815357080281775 17.823978742394164 17.829292506425713 17.821417853529415 17.7951188926982 17.752478393670383 17.702676634452196 17.658848112927018 17.633005789614096 17.63086749126614 17.64880120822118 17.674569295936468 17.69198264779105 17.687643501110433 17.656828631445 17.606011820363054 17.55123453500319 17.513346067836345 17.51199052503903 17.559972994436905 17.659015974344054 17.79769058991321 17.952483338783363 18.092784408197762 18.189375802526065 18.224015780752044 18.19621790510342 18.123685948840443 18.0354429216678 17.960300698904664 17.915843199562865 17.902901935512702 17.90762317937037 17.909398328853854 17.890380642030905 17.842265372580066 17.768050393679907 17.6791311962128 17.58989312759314 17.512377881420832 17.452918173728982 17.411495115197145 17.383484261390624 17.362690693115617 17.344299322328993 17.326674248650335 17.311678369579212 17.30389303970106 17.30933163140134 17.333939948524094 17.381851417258105 17.453510005812998 17.544316921975934 17.64478514101723 17.742761509536585 17.827191852803693 17.891839261761227 17.93706270868799 17.96852574053919 17.993235088999743 18.01485634060775 18.030932766294853 18.033857123410687 18.015389843701406 17.97227705355615 17.909592716276862 17.8396272353094 17.77680994699929 17.731482286556925 17.705760820183862 17.693156269393203 17.681409937391564 17.65673120776688 17.60777055746572 17.528557165851776 17.420292261198654 17.291939650384208 17.159324104522398 17.04245993592627 16.96130019135416 16.9308250748681 16.956968654497967 17.034925786841818 17.150681643651012 17.285306436591487 17.420245001280318 17.541331787741118 17.640062037408608 17.712352354487862 17.756471812695725 17.771977212644092 17.76030744957525 17.726184627641572 17.678297553974748 17.62828514531011 17.58821201119977 17.567624785503806 17.571401006108637 17.59909923533137 17.64585008893382 17.704329980771007 17.76709294500866 17.828439970712683 17.885108760449718 17.935495080701745 17.97786118393457 18.008691480393427 18.02245247700128 18.01321608338515 17.977314722728245 17.91533343176005 17.832038951479536 17.73419894912104 17.627726887334727 17.51610629955398 17.401171903791134 17.28565293024139 17.17563234468283 17.081146678327226 17.01442110009858 16.9866893129807 17.005160668755934 17.07124258245192 17.18021669998129 17.321968951977222 17.48233659253046 17.644844944974274 17.79267238998225 17.910566201705258 17.98639169524006 18.012196908874806 17.984948595179976 17.90712374591842 17.787032282569914 17.63839312251956 17.47871384844796 17.326566640878877 17.198553634660566 17.107015356970813 17.059040812817624 17.056418378760092 17.23657303060502 17.319087347399503 17.4077385416579