# vtk DataFile Version 2.0
Really cool data
ASCII
DATASET STRUCTURED_POINTS
DIMENSIONS 200 200 1
ORIGIN 0 0 0
SPACING 1 1 1
POINT_DATA 40000
SCALARS temperature double 1
LOOKUP_TABLE default
17.420459246418712 18.666565420522307 10.547186568727426 11.992477705023806 18.955980854288384 12.480997435582802 19.911399638596166 11.818620533074673 11.391321211682454 23.733443389082094 14.581606887746382 23.915381584228573 14.34111407445017 18.589803182498468 24.185749048029958 21.377122060753752 17.974851825111152 9.478704142515967 10.64804587521687 13.946377173383913 19.561636538433078 21.322146074185678 10.921663410951892 11.872309457171804 10.036353252769032 14.331438589546996 15.238543887705315 13.874221612806844 11.896324716605337 12.414760859098404 18.43721872087819 21.87604622470962 21.854263673610763 17.758299292336126 8.986961604909139 9.015466067317528 12.574660861236907 10.15154070517683 17.38355026983881 9.093259600422739 19.13163717189693 13.621806792748643 18.017514360257767 17.16814407888079 22.840754036597477 25.730350996182416 24.86044888202164 19.990768471219287 11.628385266010955 19.960331940299298 14.88454459402787 16.20413822883777 10.854770696774683 10.381783778248721 15.067846518880089 17.398988907849606 12.338334302288088 11.22947786571209 14.755109770416345 11.680281952666558 18.54544462544369 15.143224115143257 20.87762496589458 14.135695060954243 17.071859496475245 22.751062940009326 10.186821003254376 25.008866225310697 14.04028976388697 22.15672987727535 10.47596964241827 15.289425161068444 9.975850506058388 11.896483194826015 24.655734877536318 19.15418078938833 20.308022778668573 18.383424087790708 15.14974459320383 16.565408792688586 9.647503166320094 22.616432790190217 20.44345107136189 17.42575474299063 18.551067613875873 23.806859609539107 20.995511362409793 21.905793412054663 16.950924134320292 26.679098211347622 21.317815868516327 24.093440777803533 22.630848645753094 16.451198836764902 18.29354580443855 13.661069013550328 9.26888748589288 19.969451578166698 12.710608896142206 23.16135030528906 21.392373310953054 11.399964823551116 21.911134306468746 23.740977740937208 19.501397246761453 20.525438888403343 10.974542883749326 19.0657012421153 25.798672685515594 19.992405385080442 19.826718407227293 9.527016312598747 10.513435534977242 17.678529962990975 9.684214223982876 15.804094127245728 18.871058942367874 16.66471616494586 17.58503515715634 14.861326926099892 21.449979301441925 23.207000729485046 21.7688786826164 19.91295979146005 18.768227545203203 10.879686985089327 17.30343543253589 16.53733554510329 12.676298249546173 21.432623072875383 9.457092941436313 12.456138177749489 16.9924794925117 24.46876455511372 23.34901352396126 23.292376352766624 16.36103028593481 23.24242035406151 12.454699549274435 10.38420728308796 20.639756266155658 15.314591368286793 17.133436636064037 19.06570031533031 16.4223812291903 12.46251126864193 19.547842881725096 9.755279105257937 13.047996143916784 20.81266240020842 21.516250468198585 25.974247485978825 24.895306686434623 19.631120826612122 20.802303628766733 16.081797154297714 20.23527974475193 16.86804324442815 14.007724292207422 15.400035626984634 9.985481273534361 22.779789621601658 18.702308824724973 21.925887157791824 15.572561627744669 18.17196583472228 19.690557717281788 17.17831926266177 25.12533370429733 14.1645772584081 16.54464592192697 13.103059836662071 9.558384570709935 19.40094766255411 13.713001490792646 18.933529002906063 23.515315548289706 11.32359856594344 10.302868498820969 18.604285548476117 24.43928231722886 16.573917296120108 16.71603816591494 23.253778867203696 10.536208126142148 11.081377734416131 10.436054895765356 12.961974900476223 10.043133973635603 10.044765409698797 14.427088470368872 24.031999584201085 11.977955481951573 21.295159596873706 25.349972940363045 13.611714444480729 25.576919074666883 21.00182806822253 16.32927475072637 20.52943767966035 24.64791866808657 11.923108912130145 22.011339902531553 12.713093813900077 11.89152612293727 16.70175260445638 8.598564310078062 9.311095855370558 13.132435825734076 20.951563949123905 13.420620649548658 10.549169033740048 8.603185532431038 10.923469401482272 25.339481957741615 22.99302810303463 16.96780748832125 11.038651795550608 17.520057625153324 25.449538101052827 23.348672072261383 13.106551957056352 16.569642812868402 21.421217485293532 11.110344031607589 17.66396432864246 26.18503559711382 25.883740493857545 13.444477288421234 9.24237348752832 12.214119902631332 17.25645653660312 23.6166423793533 18.714242478638575 9.364872697664405 10.670275243752497 10.884605576402501 18.591464975778457 12.252976624821242 11.09887876245512 19.388792630540166 17.374003326002814 25.020478595831985 21.906808035391705 14.75003922548505 18.70863398168364 17.361712250875357 14.88282409115321 19.514575833256078 12.331882207474303 12.691612834175755 10.80451805250799 11.40422407339997 12.37629143487431 20.724964412636496 12.088586351293797 14.751404477730624 17.190532988946963 23.16547934682884 14.384569683669502 10.628490988121703 20.513023934237708 18.489000587817163 15.90815004930531 9.850237990008141 10.44162782953587 16.38490995112126 20.016870359385777 11.550585072059855 9.760490702703992 10.26794428543812 23.090426355220735 14.918309935296572 12.581910792521839 24.02711444774755 22.34565686372181 17.963591322371283 13.548365083046114 23.987695712974975 13.819179797640134 8.530463039891261 21.539353500030195 23.295610828540422 22.42216359539225 22.403352836328462 22.645936978370777 22.098449305067653 21.941697655761853 20.406255241493092 25.26924607600975 17.4300741970514 21.290829411891877 20.51115272062736 18.1506202893594 22.134452964764463 11.861631948592507 13.95696238748019 16.820325104378327 9.129111872783408 9.838461908531553 11.490545869200586 14.109303984860304 15.89410890039105 16.503558809070775 22.8586338691169 18.94831167256879 19.349864043353726 21.562175851612924 24.924618818744765 16.405979444856353 8.848654410484084 7.485624795341412 9.451215570416375 24.851612304704116 21.824172713480923 12.522015137711213 17.53182554129335 17.26554631622023 13.570746618993109 14.403128996259468 15.732021404354008 12.363155547957735 10.148262250174453 17.631450243823043 24.42248550786785 10.688312713836552 16.57320283318444 19.121112748124663 19.004628343210896 17.64358233250155 11.872200897237116 16.95353021012796 16.623734491881496 19.106470947098824 23.60365504739598 11.16639399815611 9.879019050739059 16.965740105941734 9.10306036362473 19.007311634276206 14.612778197608966 16.33012676575067 17.218182990897468 10.96307683431491 14.112071282847607 10.076761340734269 21.261779130104866 17.579150550544984 11.949193007496817 16.481257646884604 17.927168298780224 18.302128129349406 20.79523784000826 24.1243623019451 9.60767543002372 9.16523707622464 13.619612930968973 9.246122308751131 9.178768790431514 14.347246868314834 7.957102229288281 16.844337852233185 20.901478529591238 18.768508508890704 16.141049093239015 14.30411917091675 10.549450831241447 14.381204058075086 25.18485571527238 21.216496852261635 19.155072853233047 18.425162325384893 8.245029232902539 13.802941772442361 18.323858785116595 11.368099083447985 24.0033653316477 21.931525541227312 19.919789971868237 12.306773257611285 24.373557820997927 21.389920669621308 10.08312822050742 15.916040187843096 19.233119914744613 12.92769798530203 9.258921128612771 9.48793148386292 21.700900154018385 15.00432405727481 18.69007695911647 13.87702982521022 19.51128921176951 14.521577314674492 22.087221703032856 12.856564862624902 22.770468302464078 19.66440069060532 16.399922557595602 21.13318519339077 22.538559407312313 12.647886677350186 17.56162766899334 11.227625783440503 18.28321726773905 23.104725876959673 8.347126145999635 8.17737126164276 11.20565860856032 15.210071520137188 22.552152446620426 15.105265003469956 15.001042132689728 21.033068935417326 26.310937240702863 14.785101599055235 13.64658716187492 23.46811294331663 13.590105469054592 24.236118121185196 21.693226921495416 11.730663121100742 13.312777834009147 24.590966998218672 24.220748727065804 24.074110143528493 22.6688461609847 25.052635299290063 11.75735601113118 13.60865833890898 23.455777753655443 24.650205320127316 14.654682667160303 15.123108992486053 12.483017131155881 22.052049247504627 17.159196029870195 18.930460631121694 19.857260337737998 23.90232223374954 13.629074941220393 23.915737064293644 21.109503188806045 23.467785504318496 18.77710611602649 21.3832077365031 19.46817775176694 17.224399135592307 11.057326364358586 9.986923722402437 10.846481993232224 11.981452122559503 10.753614592415211 18.912771965067666 12.253171848110686 17.566065658561627 20.28033771680103 24.669035257615437 26.523487647980613 16.56568655052245 12.328226026857498 11.717971729472364 15.064760646475559 16.78548573759937 19.72271721489427 24.01634210786546 19.475754302292888 15.689716780561296 16.968602177882733 24.324746393669166 20.541297000664027 22.607791510584928 10.557326174114646 9.970379295522738 23.784312248553903 18.792037548575866 16.56094668031994 22.128763273750288 20.99632688980943 18.19986949776619 14.974591983851838 14.19992618726796 17.01005460182438 22.392071905887708 25.023253394797408 24.722868896512015 16.385685185050015 10.625479963930152 10.502469311821635 13.400951319364655 17.922671720449422 27.16898941498972 26.005784804309357 12.171082551225982 15.192741625274234 9.516825247918307 21.497444779222114 19.63785189546517 17.923533047000046 16.41383854024919 14.581770550739975 16.996145836712095 25.575753460556854 25.083417876511096 11.099748414003797 21.213564526459713 23.4126859051614 12.47173428468963 20.43534362928298 17.757642478434875 16.0907766328639 11.044694069490566 15.764821967406471 15.323573876957909 17.999416346391666 14.273652363100958 23.847200198067654 18.961632390735016 13.8723267226109 13.179075669390016 11.484436898234044 23.946677003571146 14.237320712390174 18.894275969328497 24.934894093865104 20.06108046922055 17.72103943609868 11.20630916051779 18.332519135606784 18.379324021517057 17.065504548797477 21.436535819558518 18.65560079475896 26.527833102339667 27.68050550249474 24.32521689017463 20.712293324491668 17.825797816609878 12.198728222460522 11.905536017300053 18.454864792967495 9.838967281581715 12.220989319215649 10.035608268632997 20.998177455467413 13.488305205554784 13.106509003738244 24.837629696527 13.821269657876908 9.568558473786442 24.264659279454023 24.10823744641012 10.462766941343713 21.150769434169305 12.38821606781102 21.43102140999985 27.0465337425123 24.65031285847302 14.748465707641513 14.773654601761184 13.023976712589494 21.99847130770491 12.522198724910657 10.199196918290024 13.814255163646472 23.292295227585857 18.502973822641895 15.177593500410032 21.915006345038943 14.338046031051231 22.512626324351913 22.695775256411867 9.228701037261118 10.047545884868526 15.266022680961397 17.09552884549868 13.386625809413896 11.476743117412816 19.95131629303027 10.427849641713015 9.433130380151846 17.811523544569376 8.085449383023683 11.126982184213505 16.641254171635953 19.947035027882595 22.19546005855595 13.174336568699172 20.77281943270944 24.58321443665256 15.956465322621636 16.733436931491454 12.167237629885285 22.921958409550495 21.622511526693298 22.904353188303233 14.19496966267572 16.292252917072044 21.883374693792025 26.09975547042101 19.197714468112665 24.167709220667778 22.390417402862028 10.29025855874228 18.90881139886915 22.322528298518595 14.620644601791515 19.950038459184068 13.711229104435331 12.81558387256942 12.452516261257225 9.513949974962607 13.361670424311368 14.59349282347115 25.794989829339976 20.836450562213596 23.20422047098237 16.21917741320115 13.495774078355577 24.47523072073136 13.275248515724286 22.785735987031103 16.184195721976327 16.044568119760186 13.499252581057673 16.247773589614106 21.662035609271502 14.699126889605449 18.631982830827944 22.273556435247155 20.249308367606226 20.83845228755973 23.143880874706603 22.749524817129853 17.331794811906484 21.40197888859307 12.310180443765052 15.9135119584168 23.38589697846503 16.02638282862149 23.382775553436627 17.329722319994012 17.600289564568822 13.46727245644831 25.234276545495547 18.0478392039756 17.582680047631154 12.903743963083581 9.625836675695934 19.01375292635048 18.380275278374228 13.174895513676894 13.096513760691632 24.527089960060145 25.17701021594154 15.26445164100693 22.303555985279854 18.79270542716286 24.187467938781076 27.307133167911292 22.87419898280259 20.43976028410626 14.610803143231278 15.130952719046931 10.741783556476143 15.121418760994747 22.536840978910224 16.82500262169156 16.354265567859404 18.3753838823725 18.90836853912899 24.216913915007606 21.625770375258615 13.299242883497145 10.407553799663319 8.928333484930533 11.067248992902748 13.811155109629418 21.589051841452896 16.419500526219835 11.41722582881856 24.89198042826315 19.145363323362936 25.62221188113232 24.535313101356614 18.61836851659662 15.242655074321899 21.06754362430727 16.038085231775028 13.852185829337074 21.79620769145854 23.39876473256262 19.770934259535267 18.74681836419378 15.011139937692766 9.315460881460245 10.253419997347674 21.24834423830357 22.284879625374497 19.312123602731234 19.430628411018724 13.105427693470869 21.396251782227818 21.15086895614422 12.75351556625778 10.195912762032595 18.071492058578198 16.234170127406728 10.837563325743039 22.84502927638233 23.59840097401383 22.593787080487857 13.927849511892019 21.836173458769775 21.847097066294815 17.9463864084217 15.982779204377664 23.112780458114212 23.177527729797013 19.801341492393057 25.091623965430898 23.623029938967136 24.213759257704098 26.13251748585767 28.112653043028455 25.785103259004337 14.289951260337542 19.44570256891454 14.888365291487078 20.137643227488415 15.481315735400377 17.021420281975235 17.085256355319252 22.72303369769959 18.313587695613403 15.014997109968352 16.145606733926737 12.670723521051057 19.819652687130684 13.160523235983153 20.55599002040843 20.81122414520629 13.891595504623888 15.036505476527335 21.81729025533008 12.343336799809553 14.203786652268334 25.024502740604223 11.317911047358088 11.308396725952464 13.67510117988 19.653885567335184 10.838280433002701 14.337515402649515 17.153499344973174 20.580839877315324 26.317604474337298 20.371122636303856 22.236277608286038 16.267547290662247 21.762351959727297 12.604945473749101 9.863160203899946 10.996328618607876 13.160334254040263 13.998184619133081 22.588296206221184 15.708602268355408 12.692968569814232 18.529576740895493 22.8898080505356 17.110474568696205 12.814727728808904 18.772928272899556 19.728814450114488 11.653910629308005 16.339593736759593 12.368106400981429 24.49655274025145 20.114821249978693 15.33688368281677 23.7469615131249 13.606441865216038 13.904902897233042 12.835862888972661 21.29650951859247 15.789701278348486 18.73841814799231 24.692584284893623 15.948710600483102 12.390577447089203 17.548732691914754 23.818556607459428 26.27257664830462 24.62460627024075 11.41667983814314 15.974209134545488 23.422922816916355 12.067886545010484 13.614905457530604 10.99960979256001 18.04364204776967 15.22669044033124 10.180044923349497 16.78895653974152 23.188900808024112 18.402616128054962 19.739871884034176 10.221458221237484 13.970819196645701 13.96680607930922 21.144868909662904 19.677590593204336 9.563439004591638 18.958481382507607 20.19967480293597 22.382242079970702 21.718116587686488 12.122418850022802 13.974737709483012 9.820990412459228 12.056914517516676 25.463936804431174 23.633945273011232 23.45455697813862 24.00599537269232 25.83026259916486 15.49245376758466 9.976055377936195 13.923497048617872 12.032840680818946 10.724227253646628 11.024126186049362 16.89610993236621 16.669520989629387 15.936200599535342 22.674479529243385 14.981892141057388 14.507227562419988 10.162399002120528 18.531807326473633 19.497433014807587 16.347872390150847 16.342953870507017 22.145699995775644 20.393537105026304 23.313848727936335 12.488530597680283 19.23502992528416 19.550121251388795 17.44818737250126 11.858775713759533 23.13754541434006 17.75187723397293 24.59562685385406 12.50237025614653 25.239575490177412 23.853062163256453 18.254144328870215 25.859338957580643 19.371956691413086 11.09152524122148 24.13134227852833 23.718579629608417 22.16821131706054 10.413544524502564 17.592689718656604 12.515511033581443 8.99792688925331 21.326950801844397 24.09761571732206 24.163304916268864 18.737347765920042 21.255373676366517 9.757373277559516 10.166614243667462 16.49208514572692 23.014226116938854 14.241089169270843 15.991052415451849 24.596931498000316 27.17282696469901 24.90148057704544 15.545562110186586 25.556490950955318 24.653245639140117 12.132121342563247 21.135724096175423 10.739397335609178 24.10199156493318 23.488659848613214 10.202106032000374 8.58347278677877 13.832555567647974 14.018835831835396 20.28869883991417 16.982591327797316 22.755493420127472 25.89923353957926 15.111014330790713 18.202334634871896 22.386880999784943 17.007493696104948 16.32486561091768 16.3200994371456 11.188338820319249 11.291103144796924 13.510689799865643 9.050764349524615 11.332219376975807 19.699370749822222 19.65446857695502 13.92639823507832 20.62503151825146 25.351381420008483 21.8304301607584 21.661315995871227 17.743942659004716 12.26448746515046 15.72059293771845 25.737321303307397 19.395125505457628 24.7736634599529 25.65867681386789 21.813306889564547 17.901984465205313 16.94050417961913 21.256156832993398 21.746722505087742 18.23462569929388 16.580777091668363 19.570671227982192 19.63644792970441 23.556115116013668 24.807592866640665 16.592820691630624 9.796845079301919 17.49017561429378 23.491636282030818 15.34747025864196 14.704232958655934 14.183109427261574 15.975374880085242 24.355714001421976 25.103914519588955 17.79840306572557 11.395339697400875 18.874049563371038 23.005008513424468 15.649731250908305 19.239749662745645 23.572791795386884 21.642867171806863 11.785858059642983 23.978774223391614 23.080384281312476 21.44543847443696 24.23748093355495 25.633260023046912 19.4789476736777 24.045846268263187 14.21503975070794 20.15971331472807 22.26257191796668 10.24607663769981 14.817107039253699 9.187812544909752 13.79971473560795 10.63983524521949 13.526849536285617 16.327402339131503 22.981499881421914 13.715071991888708 12.136953104814053 26.282270693277503 20.170839036236146 10.268736330577056 15.321550844286756 16.30950206962083 22.993943053589994 22.9238767825466 14.610851559739382 12.271880492618445 20.88756406718089 19.302920602437034 21.04837576779507 15.058251469551704 9.274344249929895 10.189728870594362 14.141224809536892 16.371176478559825 24.01196692833532 25.213299510375357 15.496801069709212 18.584074501138115 8.538340959459811 15.052719865696117 16.414686233521362 13.230522517052364 11.50016922879377 8.800423355333571 8.83478847306166 22.225638487267588 16.715746107800754 22.329590714487733 22.113991690517807 22.684550468485483 18.530115146792877 16.8377187116514 22.299728137013755 22.51421767432486 25.005775701357503 19.9471381911423 17.094816179990513 26.419304019227475 25.491569531308084 25.48570844766647 23.89782257579004 13.87367701486381 23.553705245245375 13.481711936860032 16.701043686790417 22.933226524123164 25.59736263762783 18.28788873658378 12.060968802870585 17.119465416301875 24.535576300756485 18.99765455814739 11.372920311202451 24.360131710808094 24.92708069454832 22.734229010620798 11.844939110517945 21.681241341500453 15.21738570617897 11.901429637734731 12.58900343661016 18.104633423251116 10.771950234999577 14.612495575307271 12.1774653359124 11.097569788780852 16.170338806253195 22.808497829705086 14.705153644611947 10.862872675484626 14.761340124822581 23.097943160613717 23.95084883973435 22.621409307813632 12.526079202206187 11.169846721678972 11.606468234394514 11.586942588529224 24.456790185681974 26.479577229464606 20.428356800721954 21.395836452726286 13.78245030020973 22.975561175317036 9.47669850333218 9.690245577055862 17.308026468059875 23.194502435433215 21.998497975063465 24.65637804127228 14.864318147109302 9.771183888623092 11.785768294116473 24.220647082845637 20.260384240277745 10.166784776966825 23.2874221202266 17.329132726377974 11.721259667792635 15.409082746019282 13.88353276417414 11.730018687865527 9.389267014877271 12.307302469231091 12.598573757650776 23.642715356611834 19.791327446783104 26.651936963852215 25.004590468919837 18.261493406257483 20.081846258351323 14.311719949964322 16.369023477267255 13.737463511402117 12.706075251027967 9.972744948743767 19.716394023869714 23.35835156186979 18.65809143421714 22.075227961881357 14.123088183124045 16.950704544841237 22.063623354394863 22.388460586425207 15.658243972045856 16.942728699627075 19.096419084043024 13.394073025966511 17.292933606448575 11.699834743610674 25.245371828568256 22.122450681144894 10.042363980113503 15.967999610050539 10.017616619825262 13.400030298574906 25.701936716213353 19.16622994585352 11.57889335329214 20.003986780703023 13.912340438049057 17.614804773357868 20.988287086484462 18.087001833412312 19.56436031717 26.478579101183126 18.92846174062291 21.499099018757974 9.308875000462738 8.379297344177443 14.793519810998424 22.803767400318456 18.091273077913566 21.00639120806341 18.334337915444372 23.550002594066026 13.382817252108497 23.847574999161093 13.317089672542936 19.363714616603428 23.86358431776326 12.140533735671177 13.201239181019695 16.72942734452523 21.41854055641378 16.389191629111266 24.892808528212885 17.935966317828218 20.48353813669938 17.477407507525033 18.237587696173797 24.5560841778168 24.61962149870483 21.431864287987064 10.731565270971478 10.280523128997812 18.52680974239568 15.433898488345122 11.793991207890587 22.24557905897578 19.58793016046444 25.034428188461167 19.969297905711947 17.595723733273207 24.18673962453903 26.622600660229267 19.30088856648429 12.465012360100022 23.205392818985235 12.586683039439034 16.88221967642776 16.46831580473899 20.16032117403053 22.59479374324818 14.802225579962109 14.611110880864949 14.198244954615026 25.520104828322133 16.905921120967587 10.531834736290845 14.489361217296334 12.45849812243488 10.134592126537253 19.105926830837515 23.483467490892092 23.85409249913115 21.630329885681597 17.251879616100382 11.020732383476155 23.161131734283163 20.22374392070107 21.928647515355905 10.683972518714008 19.981177252407214 12.285538453182381 23.14833856928357 21.190032745266013 17.824372631641413 13.730867381823558 13.402529812356994 9.130923588495406 17.04841545733385 10.14156111721231 9.296829371305828 9.267654650762939 14.15568153583391 13.031435877999023 25.69327694951437 22.905461784376143 22.031885873269598 23.34104546706237 11.961770571610224 19.292749214044143 17.58363828354846 15.04284943678845 13.908117947763923 9.921230863316612 21.831685936962796 25.15004339524802 26.05716335930967 26.155895646313525 22.621077863385818 17.133134525436123 14.764550102794304 19.36884485329158 25.31753077641396 23.521812020011264 12.773483585286298 21.837067965484156 23.597246010910087 27.037499751489158 25.07620595492088 15.894244853748273 17.192615270206637 13.740185832238355 13.9235394041274 11.0208501608841 20.95530086560864 16.78212360772671 13.012879933580361 19.534301810096853 13.648421795065142 20.80552785413058 20.50448831251059 9.542057157534074 7.84613212220083 18.806138296457846 17.056072242440255 14.020374685901857 16.28272553818947 13.557412652691909 23.081639153620163 22.08344117815259 11.767608505033863 19.774200481306508 13.945483351435469 19.180280454942125 13.879039850816772 21.358686880989293 22.124297303715682 13.101468624999383 14.688278362197583 19.386070210247613 18.665789518023296 22.27035335632101 9.716352500078816 18.55922591661307 14.752725151198387 26.436117248031753 22.252913918819488 20.45597121438201 15.146301233059178 14.336713220574458 16.315542142127374 16.81676014299118 9.975280434717789 21.722514772797403 14.867330476520474 13.420487147388357 22.459233940476654 21.503395378425143 21.63378648114587 11.918267901116035 15.790899929745713 22.85335860810547 14.420013604877134 19.767331709738425 18.472218223034577 17.118119850016488 17.25160039134074 13.563508451885056 9.376912515162939 11.983270008702995 14.964025890297265 19.154162152787258 24.258892860424798 24.243865344291827 26.622611067316726 23.306240491515887 26.06821459314424 12.657039482463249 23.114193097330915 20.68247198215208 25.57305423778377 23.656446705951826 24.037787892180468 10.91071643493575 23.729333352543993 25.082220231595826 21.942587789289924 25.08231973322498 18.272996673319533 8.697465391248734 19.24393976688391 15.090092415337239 20.004483532377414 24.854269270156898 17.67942549390507 13.875588484458122 14.12683602710232 20.659545174064263 25.52386214206126 19.56342972698641 18.68668059772468 12.646494106521809 26.589019346445784 17.880237994879487 17.580381601477633 11.516481020131344 14.838127576198751 14.136505963785664 25.402452400694244 24.811499285009738 11.484749048623241 19.385769478812684 21.021276720949185 17.41698937582909 13.760679382045344 24.103524933498356 24.650754727594858 19.531541751949206 17.735295419577042 13.540691310946935 15.80955250973728 13.79997814626618 22.251852258540666 15.459795329840427 18.897266009403307 17.784001238851292 14.204623823269424 14.549110021870552 17.340726416543397 23.57100373798348 23.904448656601343 19.910658279185153 12.577833406656437 22.95718494454846 19.1900036698953 18.016554835457047 13.462431863691387 10.820789006175014 15.398566993901637 17.845065426377882 19.592201179721343 24.627393179920436 21.53167409157406 20.750043065432447 14.918833343780001 15.895768625474464 21.82831432361372 12.508576390651278 19.41991664136975 19.152731515939916 23.15712993346993 21.087777926032686 16.5859208296443 17.201620770412234 16.797920887465427 23.68604196758889 19.961640498815587 17.42133629286211 10.625028932020204 10.326634289404675 22.026960390003694 14.228804098362284 12.827828297568228 20.30736413547218 11.838583474517002 19.193129677486162 23.194524620989707 26.684728834413452 23.37885336127384 20.55438429441368 18.414839891224787 25.271372759326173 24.65676202402736 21.96866215701173 15.632146260643651 10.433693750679968 8.726542098605131 12.482704906214098 16.522205753339673 14.854653607676315 22.15994073876985 18.14191161946955 9.94603464252008 14.808283122074927 25.438055909306282 23.88975609713787 17.965851653279888 23.64908370838393 21.171836216767126 12.948350060453635 21.11576485715093 22.553988365915334 13.665388620619241 12.303754016418878 11.217016978896694 10.563539863512736 22.25431139962076 26.009012689331268 15.984783889147137 13.678254894762903 15.595289932345125 16.71236284423879 11.904195109670987 13.987618128874846 23.89667800931932 23.752629672346416 18.30162367906999 18.018965865474982 25.277494856028405 25.266246790699633 11.34897764993778 13.13064974305637 13.915488619265695 17.610587118616113 15.514934258199164 8.558200029562833 15.168173548301532 24.76314481221879 20.09633150148846 22.92843780640981 14.00537109736273 8.244864117592252 11.004780859698934 13.821442637266419 20.559310500225315 19.166424672761437 21.14880213904873 17.42499130291501 17.840397337255425 21.116294243853076 19.26036050772904 12.137042904661072 18.805868352250204 24.22624511368743 17.019253411744604 23.553351065889867 13.527530004846438 16.984435934289994 10.152834167549308 9.601506974815347 22.64810811702404 19.364177679412883 13.948830811916963 24.02662325888069 15.859370207732669 25.652079437500763 24.285287281053943 24.338774333929766 19.96100926699197 13.618251069856846 19.239306006337326 24.470920933572817 20.096421210128902 21.063417964403715 23.2480277458802 19.141938915402484 21.360151018227032 14.974444505423204 21.55939339616264 22.30956866153542 10.592418444489224 13.825880377415473 12.78673379951338 25.52920761627232 25.876288648491922 17.203833366764552 17.249122285636105 16.095226242245516 16.333518098242603 20.56893107971265 25.085728838125224 22.796182212122655 23.458872659967064 13.838657447335734 13.588602187783627 20.676854396929876 26.01606251808784 14.262896250385547 15.371543604877944 9.394873534977185 12.019875589942917 20.548767627341675 19.5787779150977 12.052075145609496 19.184394841491685 11.227369634943637 20.638825938845983 23.671564349072376 22.42811400257997 14.171274170543526 23.66773155101878 14.655107453332167 18.454452564831676 26.077466121055828 15.542618827222151 24.32266402315611 24.87741362922697 23.371369160896638 20.676230303334762 11.781687900236111 15.868149678473966 17.80264775618481 26.010692385717537 18.215058984554666 12.935406493151621 11.727443422284107 15.192325545111279 23.586811801462716 20.39299691713434 13.332685222826427 18.33846533225075 22.89837770675952 21.485726126734946 11.76357063135663 15.721872677056556 22.234269895566023 12.217752748597098 12.465892403840808 19.13121866071582 12.337734676672785 22.5323180193349 8.451332498815432 9.828379611245794 21.422471923874507 25.66960874128678 20.946622085676008 20.394858938835444 25.220676275453176 19.75770837549523 12.735377764361088 16.946278302016932 22.220720160021376 13.634261448270918 19.286072526778796 10.095188125011232 13.20391811246209 14.933582811869018 19.016045321516348 15.985030519772664 23.791613684030608 22.0334324515954 13.79719139228341 20.340623461370928 16.747587880045515 21.47111765093659 20.514765916179886 26.053604053129465 26.740871224108087 23.751383464849724 16.952033027940853 14.518953983576623 21.259473197170465 21.8724783565897 21.755569734832026 19.361728458302853 25.361996516208567 19.687809699919423 24.524107823460973 13.942626902258676 17.510203729158995 23.166068709272277 13.382850408508798 14.44994024371872 11.262294448968886 19.081479131761256 20.666856155649462 23.258955525033087 22.758821536414697 12.225583840765022 14.835030630197071 14.715989947622923 18.05220815800741 18.476400217811975 15.48831896624224 23.14661986956563 23.919987878190764 16.454726282188982 11.67082238082434 23.89834028388119 11.8