# vtk DataFile Version 2.0
Really cool data
ASCII
DATASET STRUCTURED_POINTS
DIMENSIONS 200 200 1
ORIGIN 0 0 0
SPACING 1 1 1
POINT_DATA 40000
SCALARS temperature double 1
LOOKUP_TABLE default
18.352701560480288 18.073986966812654 17.75932950375697 17.41887886388004 17.062600856151754 16.706583177689907 16.380004637126564 16.124339002823824 15.981958789194167 15.980149271214767 16.119684619688883 16.372372758323728 16.685988162662106 16.99410958805282 17.230610247080197 17.347646486736547 17.331193131375485 17.205786629188058 17.024888025455468 16.85168730697178 16.73962945454632 16.719504742216888 16.7946781533562 16.94314375398301 17.125248106337484 17.296145952178247 17.42018833888349 17.481651648265927 17.485958538023812 17.450222828564957 17.389304511273462 17.307218745879762 17.19955338970925 17.063909693736527 16.910026707312436 16.762902959334877 16.657607841116366 16.628517360000014 16.69702692738858 16.861934938900806 17.09633657092665 17.353027371712038 17.576920763796444 17.719864330123404 17.752659877710084 17.67087665802282 17.493554998289884 17.256320774370877 17.002369561598293 16.77477674204847 16.610929181352635 16.5371527471735 16.562392957153893 16.67356821871156 16.837258952435782 17.009535860987143 17.150248295366023 17.23503786569355 17.260028503309503 17.238525606546084 17.1927929354154 17.145420638348966 17.11394403225794 17.109757243997834 17.139300191873275 17.204265921833954 17.29955201380246 17.41119149105217 17.517937182072874 17.597788560409946 17.636638858615225 17.63410635688171 17.603195381527264 17.564315862762733 17.53755906182901 17.537710068119956 17.573850727564203 17.651581644429506 17.774087304999362 17.940050081681722 18.140085942620026 18.35552068181669 18.562003974966327 18.7368619688925 18.866245562994834 18.948043911317775 18.988856234451653 18.9965574040048 18.972725209681645 18.909901427996854 18.796204033711245 18.625165062938834 18.405011375152384 18.161602978270157 17.93278340656152 17.756722851656097 17.66018566295626 17.65230854430293 17.72540970268823 17.85991977971528 18.02970406929606 18.206652500655483 18.365263450297913 18.486577747712413 18.55895407357053 18.574876803285726 18.527448859088597 18.411789650395903 18.231857696690994 18.006452280288467 17.767039091717667 17.546794476382292 17.368503267189112 17.240402173079428 17.16227190742447 17.13563600699825 17.169379934618046 17.276636961861207 17.465296769281576 17.727862521492384 18.035927150651496 18.342472731880942 18.592796387126022 18.741559767589035 18.769373516639263 18.690343355594255 18.54554023589764 18.385488494406534 18.251287874904367 18.16333906767407 18.120095357876824 18.103380211128336 18.086024103046448 18.04002309853068 17.944658045136368 17.792928480711588 17.593854219550277 17.369541841003933 17.148228774595626 16.95595441499195 16.80987442573714 16.715934792199 16.672173692536273 16.67605127277219 16.731328393318837 16.849422050984682 17.04299667671179 17.31452306744388 17.646481414616463 17.999888892935495 18.32337453013515 18.568574425831024 18.703550332199036 18.71768545346214 18.61804747396618 18.422877594144577 18.157708695399666 17.854594496672146 17.55063191836835 17.28258194136921 17.07883763038254 16.953473912265302 16.90607280676891 16.92648550990543 17.00015310035627 17.110394233713848 17.238022293220702 17.36165417768077 17.46140543989032 17.525189708248856 17.553562778139174 17.558743979895745 17.556888084187385 17.557705163612905 17.558045674921175 17.543527768868834 17.496558468063192 17.405080865180995 17.267197062182326 17.090981918580134 16.892159371097886 16.692202234599463 16.516889829939192 16.393686902637988 16.34732758862873 16.395130754864617 16.544036678571032 16.78969981105255 17.116432838266654 17.497279786804548 17.895385146967694 18.268818785116412 18.57942613479063 18.80271340976584 18.93320815942309 18.981281531265573 18.962986242834557 18.889689590547924 18.764254547498783 18.58501422283129 17.94650623733105 17.713472656692794 17.46480948090732 17.203548318048927 16.93108460663502 16.65471302406353 16.396109396306027 16.192063011722873 16.084083994048243 16.10235909361745 16.25309406558226 16.51413354719192 16.838087839575557 17.161134982698222 17.41744465047857 17.55784776604099 17.56636430870513 17.465814917045154 17.308612191817662 17.157385167196757 17.064769865973783 17.059618283734164 17.14189712155067 17.285486467417975 17.447566531375408 17.582804079787547 17.658524389249887 17.664729047275 17.61337264195135 17.52674107158754 17.422344789428294 17.30477053907773 17.169590312737217 17.015003320377943 16.851816646039467 16.70519112137963 16.608088279402576 16.590550503393967 16.669217934346914 16.84013668972054 17.076864061598826 17.334836317732833 17.561212302758324 17.707525996061285 17.741569596609033 17.65515107065177 17.465460573159806 17.209938383393197 16.937221684559155 16.697744051608687 16.535601197834758 16.480822221188756 16.54178610273378 16.700754384223504 16.91688002391641 17.137811543625514 17.31567013706519 17.420516647555704 17.44623288625773 17.407855543480345 17.332920264898604 17.251093043825005 17.18623699468592 17.15314263693338 17.1581671932373 17.20095206006968 17.27492463971439 17.36684262707882 17.457693282902405 17.52688350580605 17.55914136402205 17.550910383859563 17.512426222004333 17.463969341887545 17.428589147530662 17.425843197480713 17.469652468699234 17.569387552122503 17.730407340886572 17.951191568480773 18.21823149878178 18.50339274226108 18.768143615855564 18.974694514505277 19.099023589743695 19.13874051741026 19.111070501177633 19.04158514630406 18.94982917074233 18.840309871553806 18.704313172604564 18.53115001475594 18.321425369853845 18.09391675653609 17.881945321476106 17.721574529998882 17.638527007066134 17.640586035573392 17.71775144813161 17.847440144217085 18.00078293270379 18.148443333711466 18.266192961698287 18.3392271786898 18.36254551228694 18.336641976817074 18.262400934908452 18.1408161219007 17.97855704227256 17.793578713874282 17.61349385885389 17.46566327375703 17.366019230696395 17.31549673772484 17.3067181851336 17.33517160009574 17.40602068856026 17.53167505990357 17.72184562818331 17.97194528793415 18.256099836551208 18.529096685551075 18.738298215672962 18.842029924409054 18.82649899110592 18.71216481507935 18.545277066992956 18.378928907783294 18.253849876899004 18.187464039540306 18.17288041220846 18.184360811499797 18.185891837827416 18.141709051746222 18.02755778571334 17.839289675591385 17.594813370330623 17.328189119491253 17.078497200364726 16.87808872640031 16.744506309575097 16.67880710713443 16.670700998804644 16.70799620167034 16.785398703274478 16.907467843299706 17.083436520811002 17.316534111553324 17.59434933624789 17.886743392067647 18.1534397396912 18.35721797014902 18.47487184446411 18.49999790019927 18.438176793574364 18.300610235418883 18.10182576174558 17.861586097040792 17.60639267708396 17.36647964960661 17.168932562843334 17.03146378152482 16.960635716644628 16.95410188519009 17.00331920232283 17.094191342281643 17.20667549881873 17.316534052828974 17.401045152188797 17.446899187735298 17.455598909063227 17.44189198048474 17.42473335993771 17.41572709494785 17.412471641328526 17.40092132734285 17.364215379098372 17.291333624105324 17.180729648942958 17.03921263177815 16.879587124214762 16.719493230071958 16.580734346194976 16.487039692080284 16.459928430889484 16.51460087193274 16.65767982499587 16.886487382145262 17.188209086329458 17.538484810039865 17.90142890246484 18.23409096092736 18.49624735004576 18.662110580839695 18.727461690603292 18.707269819292694 18.624941094912412 18.50026462633691 18.34358241807031 18.158194666366974 17.520442492852208 17.36123084583466 17.2080701223059 17.053850859850314 16.888307279939426 16.70743699257453 16.524014497307764 16.370093698039778 16.287538672415398 16.311563574326186 16.456358175600506 16.708357749419587 17.027234936040685 17.35329430065694 17.62136826078538 17.77992837961545 17.809054375981436 17.72807080049563 17.5879287545366 17.451922110733946 17.373898734853604 17.382328350891683 17.47415637572938 17.61852270291321 17.7684047465228 17.876856336821486 17.912830386465483 17.87035082610319 17.766254972388754 17.62732244154953 17.474699236874546 17.31588433799236 17.14881121883962 16.973231209429052 16.799964187055075 16.651875532241366 16.55724377958786 16.540261776480754 16.61296263316782 16.770471760899877 16.98995196010708 17.233348121962695 17.453960292242545 17.60620524636396 17.65667363164162 17.59325181650724 17.428806043165018 17.197907408903976 16.948486113387546 16.732055907504154 16.59453347973392 16.567273691620922 16.65854990023977 16.848829940722247 17.09425079325382 17.339082204424354 17.532557633896328 17.643014246411546 17.664256229776473 17.61307717558271 17.520233487646074 17.41896185331726 17.33546145436274 17.28444373574903 17.270035226742817 17.289465317909585 17.33606883886629 17.399808580697307 17.466436435939215 17.518299424451268 17.538940681604956 17.520278790518457 17.467993609951716 17.40107334529266 17.345566101609847 17.326782198837765 17.36452357058692 17.472212645378864 17.65675296087435 17.915515501897527 18.230667092031613 18.5657622643993 18.87041610086725 19.09432389971109 19.205096718497664 19.20050507581909 19.107687428045008 18.968812421056626 18.820699422509275 18.67988073171508 18.54132073594712 18.39027572195938 18.21868843962466 18.03559950310804 17.865932643924367 17.739664505410175 17.678712456203087 17.68883907423245 17.759238658298262 17.867420368839607 17.985609371477462 18.086938074200713 18.151276690244853 18.16940307556279 18.142858984261185 18.078929249408915 17.984724332707238 17.86592176051945 17.731248643446786 17.597289101669002 17.486836446503286 17.419872684552917 17.403773473512324 17.431056733688113 17.487106817103477 17.56221575778404 17.65907751308428 17.79054450207391 17.969025328245227 18.19353481078791 18.44148694073332 18.670499659344927 18.83134486811683 18.887471336653828 18.83172890115291 18.690824068864963 18.514385224711656 18.354730307672195 18.24833067192956 18.206692671439114 18.216889917670464 18.247662094587415 18.258267891530675 18.2097594776663 18.07749422829346 17.860662662786144 17.583958110719514 17.289969954983327 17.0255605764544 16.827853533192883 16.714886765466712 16.68385318696259 16.71712619802965 16.793264575015954 16.897733364497498 17.027734337830722 17.18845857013311 17.383264379138254 17.60439249766804 17.830644187302045 18.03378987197227 18.189437943749056 18.28497348130384 18.31963694721065 18.298255514285525 18.225079607391574 18.10313543061684 17.938707320930476 17.745732302095877 17.545410923481334 17.361113488785545 17.21262743738693 17.113271122988895 17.069679098285434 17.081589520662437 17.140285912150752 17.227534581757933 17.318127896233058 17.38706464506745 17.41874581579892 17.413085723383062 17.384102377058724 17.350762076256633 17.32538265777514 17.307234108761847 17.28522034672391 17.246465501232606 17.183782053227965 17.097645798041444 16.994002960329833 16.88207022239597 16.774231785941616 16.686450432264873 16.636658771314664 16.641039516447712 16.710568443990386 16.84963763088858 17.05590744838606 17.31917101614412 17.61872679076278 17.921890977981196 18.18758675433457 18.376476635710866 18.4640185004542 18.449091578355123 18.352328077106048 18.20486283409582 18.034811810852297 17.85965631079826 17.687139455137302 17.13174548628506 17.06118668020723 17.018113588349063 16.983895215508976 16.934854385007025 16.854126045877916 16.74470508541011 16.63393426417883 16.564830470868184 16.578858151522468 16.69950619086474 16.92310120614618 17.217741379666236 17.52924113619666 17.79411096562933 17.95859543684999 17.997995285089107 17.926962243209502 17.794439274301332 17.665006215388875 17.59521344517654 17.614694821506973 17.718310700447553 17.870611928901923 18.019851326789322 18.116298796474403 18.128607229156728 18.052271329469978 17.90655177488381 17.721439958391056 17.52229047923243 17.321534740461342 17.121576982944674 16.924544799713356 16.74037163300326 16.587703087433216 16.488422286865788 16.460346791936654 16.511862383918775 16.639340875963107 16.826414874138603 17.044626336809948 17.25634633522295 17.421248240362385 17.506020447503555 17.494249593216153 17.391965118799565 17.226240123668696 17.038265382871433 16.87450489644492 16.777934118199223 16.77892367569455 16.886166550983333 17.08143029818144 17.32285950055235 17.55749937638493 17.73800376794649 17.8362125925157 17.84867798882379 17.79350430055857 17.701087743591735 17.602762375278154 17.521526433600904 17.46802750061966 17.44254527868054 17.440538549128537 17.457373044650723 17.488819486189296 17.527623558125455 17.560389014188974 17.569639562871835 17.541827820377677 17.47640617271435 17.38932676979117 17.30846581432882 17.264534322625927 17.28340551730771 17.382789003119797 17.57118942426752 17.845079547545133 18.183367527305247 18.54371003041682 18.867359968181596 19.094974841192524 19.187906765709137 19.144016212679063 18.998325846612456 18.80670383320445 18.62077096803625 18.467809610357563 18.3462813093212 18.237483450024396 18.124111183846306 18.00374435562619 17.89042022136598 17.80578365448998 17.76699681291901 17.77864071399788 17.83145533647065 17.90611510650137 17.978890103661595 18.02760836160996 18.03740568154914 18.00460830798375 17.936141750445447 17.844171135499057 17.73998387376145 17.632343665221953 17.5311350982177 17.45116409329224 17.41008116043319 17.42005525740606 17.479580175872854 17.572951739561436 17.679214312024662 17.784824181340678 17.891355483411882 18.01310011601256 18.16580301716119 18.352617816154805 18.554946888184347 18.73416637281729 18.845434466796853 18.857998613935457 18.771285535638295 18.61703632811192 18.445763509994325 18.305619265980635 18.225475801098984 18.208853795887247 18.237005934124088 18.275937964900216 18.284806688536076 18.226293810676356 18.078454863778273 17.84395867271759 17.551623543558087 17.248511011723956 16.985620924965122 16.802845947686965 16.718514989387078 16.726867768569537 16.804106393970656 16.9204816849941 17.05292524607663 17.19188063090267 17.338909717089017 17.497449547360656 17.663724516274087 17.824408491026446 17.96234000232795 18.065486077736264 18.13202594399723 18.167728384577185 18.17821812130157 18.16287144930615 18.11533361967998 18.029788017522776 17.907569311606423 17.75929161473352 17.602093229979417 17.455214825630392 17.336740056303256 17.26131506796811 17.237055870216604 17.261592923706843 17.32002657709629 17.38791341817885 17.439521455367224 17.457846879952815 17.440984375455134 17.40075207149301 17.353876324753937 17.311279619249888 17.27283501198616 17.230761999410483 17.177764275593052 17.112765526105644 17.040629160054895 16.968353816796586 16.902591994287654 16.85036567521567 16.820651957723527 16.82378709167943 16.868613295077793 16.959980941460497 17.098417749227266 17.28072205135137 17.498774450600596 17.735944590802802 17.964211642640482 18.14674535143541 18.247931712369958 18.247068073224018 18.14774348458685 17.976460335762532 17.771027636846267 17.566216737823915 17.38513869523141 17.239102073448134 16.83738307665321 16.852332232497066 16.913120341898196 16.990795746692744 17.04902046452342 17.05844944587329 17.012463096269215 16.933699653807054 16.866131300094633 16.85702170966073 16.938551264745566 17.116511271822407 17.36764614766649 17.6443984297414 17.886683912706626 18.040095444047097 18.075855480431265 18.003630549625775 17.869567300976655 17.739055471214712 17.6716787416527 17.69933297498574 17.81621189720842 17.98343000575128 18.144870806023498 18.24720967040896 18.256744679872764 18.167520882193763 17.998304520951176 17.780418440571196 17.543171896817086 17.305004956594072 17.074201621215956 16.85603076047203 16.659371077045275 16.498035289103093 16.38724824060887 16.339050236224285 16.359585046340683 16.44821858069192 16.59666465665801 16.78736102600516 16.992856807580758 17.17911280976499 17.313658323144605 17.37566548758844 17.362748740923248 17.291240632107204 17.19112074483736 17.099055452487157 17.05117194210714 17.074710418292053 17.178922524220262 17.34941330832713 17.551029792140735 17.73982666396397 17.878542096691262 17.94801544757313 17.950190236892873 17.903271019492696 17.83259724002923 17.76117702193461 17.70302470116431 17.661417590429092 17.632473963539937 17.611751966304737 17.599272496391023 17.5988264331963 17.61153256188388 17.628940845545824 17.632717039616054 17.603350952153203 17.532706032585736 17.43161713924666 17.327588257924496 17.25511379391552 17.24546082026902 17.32079177989345 17.49197053425976 17.755907422111722 18.090458127723654 18.450682627655485 18.773508427356834 18.994235066557174 19.06991295718977 18.99788435693123 18.818114118560047 18.59609286350635 18.39450834947477 18.248969756175153 18.16039635841672 18.105844591475616 18.058495488080084 18.003917127409927 17.944739734549668 17.894433483248708 17.866722564880572 17.86744030164279 17.89183898804517 17.926432101438294 17.953233085373377 17.955176711655756 17.921837205144517 17.853296505806206 17.759482493940435 17.654895134809234 17.552722126905273 17.4631709781752 17.396465412425812 17.36558859907042 17.383560599487357 17.455608613005424 17.572512174427356 17.7117921195974 17.84772767445673 17.964330463431004 18.062986468925423 18.159881645202358 18.274345292278415 18.414073946854554 18.565195175861643 18.69374374717194 18.759883196308717 18.73851234427957 18.63443333117923 18.48220477068648 18.33036865421261 18.22005525157323 18.170424860594114 18.17632429706435 18.214358078637627 18.250804980667837 18.24887056495773 18.176841688981714 18.017785097450698 17.77758024503676 17.48650766375582 17.192240374820717 16.946387897087536 16.789496354484196 16.739720287512725 16.789091992219173 16.90896629665356 17.06276792575948 17.22039631419278 17.366979891857888 17.501579229476988 17.628080368048607 17.745932495155103 17.84779513439967 17.925022294460334 17.97547562641152 18.006548592914182 18.030489257186773 18.05552610875936 18.07961110924016 18.091246190513314 18.076268123395515 18.025539806286417 17.939093638290476 17.82596462452425 17.70182158623858 17.586150598345988 17.498579376521036 17.453351254027794 17.453212738596005 17.48649344744278 17.530554807363828 17.560960176047363 17.561793027140368 17.531406701016003 17.480214578516446 17.4218914967267 17.36400022107102 17.304837585981428 17.238432522760526 17.162740062558274 17.08373638550049 17.012623160029918 16.95983363818479 16.931504828832935 16.930374314140554 16.95835078526609 17.01722895400674 17.107199569186022 17.22565658118991 17.3680028492834 17.52899948951282 17.701708496769978 17.873356644439244 18.0215277178286 18.115856854045628 18.127412836682232 18.04189620628037 17.868566507069975 17.63857011837402 17.393378841264976 17.17078040421734 16.99653554304286 16.88401575656579 16.68309867464232 16.76412963156903 16.902630011916024 17.06305911242553 17.199989999717737 17.27443370493592 17.271820372918157 17.210329735638947 17.133748334794735 17.09296171602759 17.126253521852874 17.246674905633455 17.438579923912165 17.661654812372444 17.861346625328768 17.985367131323653 18.003035856140507 17.919685218179584 17.77774931352321 17.64181943917906 17.57344464789002 17.60706942587818 17.737785834596412 17.925258553927723 18.11032305082351 18.235980155802253 18.2645865639866 18.186112700172625 18.015961078691344 17.784470491891124 17.523626596043773 17.257634283332173 17.001071618649597 16.763004662050474 16.551989616780276 16.37793171688368 16.250691764465884 16.17814208006244 16.165700731164677 16.21656766700167 16.33035589758704 16.499426018031556 16.705473474816642 16.920374683243484 17.11293577552373 17.258615022540123 17.346750287716723 17.381956794106674 17.380906441510454 17.36770503616549 17.368885199092375 17.406574923576486 17.490072067249734 17.61029349859963 17.742373845838635 17.856594592726516 17.93144951268905 17.961212191768045 17.954795158726782 17.9284797205483 17.897614833926834 17.871014413440914 17.849260718070582 17.82677696481117 17.79698084196756 17.75852192592849 17.718778950932176 17.69087638142177 17.684331292017603 17.69521119795764 17.70406571898198 17.68519022966533 17.62202158437087 17.51845925893613 17.399176540953984 17.300199270017274 17.256908459679906 17.295882679618092 17.43139003670086 17.662679456333926 17.96926509108662 18.307112985997083 18.61273906861695 18.81947506200136 18.881750700375573 18.79558175944743 18.60272779117961 18.37386733129009 18.178411522980713 18.0570492994491 18.01129713642447 18.013240663865837 18.02659719445012 18.025648262481592 18.003147334598008 17.966821395498393 17.930105782560634 17.90345856501253 17.889587254977442 17.88274641870511 17.871147744889562 17.841746530690468 17.78618260655736 17.70516880197939 17.608393150832462 17.50984939978712 17.42247045024688 17.35653390547459 17.322037425097488 17.330405658454776 17.391106159692132 17.504207458836603 17.655026983250206 17.81666011938634 17.96061697699311 18.069739816216895 18.145693639138095 18.206475288782705 18.274824873824755 18.363110668158498 18.46269754420554 18.544855365665903 18.574817991283986 18.532190568586593 18.425117689708372 18.288316954549373 18.165868248698754 18.09027488331084 18.0706139898574 18.09389631858251 18.13392271941851 18.159820837550914 18.141707862957013 18.055917151431903 17.89173198670738 17.65768323936554 17.383282060224715 17.113629199732255 16.89782907595099 16.774920266551707 16.7621252501548 16.84987987273605 17.006306194121727 17.190145610369637 17.36650888755074 17.517211091991918 17.640252153984378 17.740480032296407 17.81978475779796 17.87456573805128 17.90126955332053 17.90386513069017 17.895960300589707 17.895173788123362 17.913746307945477 17.951979590020283 17.99842981408496 18.035801827772467 18.048373489757115 18.027312659930487 17.97291528878965 17.894656606600027 17.809525759893877 17.737802290897644 17.695903037414766 17.68874861381832 17.706400301649783 17.728214075866852 17.732903888700758 17.708698159970563 17.657514921276988 17.590780909900296 17.51988378597768 17.44811037985471 17.37019503417344 17.279766697046913 17.17835474462116 17.078370627166684 16.99799997566549 16.952787550428027 16.950435830462748 16.99116009824007 17.0708086596846 17.182894835703554 17.31872768058197 17.467710498743436 17.619266958144593 17.76491176184809 17.89758689900312 18.00765334286509 18.07892050390964 18.089701181648152 18.02082789898885 17.866834470339136 17.642922209779336 17.382396457422768 17.12579879977341 16.908715049488094 16.755261211931483 16.678524389090434 16.69075068662236 16.809673483099072 16.98771759401806 17.187912527842364 17.361370450856203 17.464416798055243 17.477775587362824 17.41604942162113 17.32133984865654 17.24490303780949 17.227168878110007 17.28492579814425 17.408029721040336 17.563342259560912 17.703841514903147 17.782648958382715 17.770304204696984 17.66927173385095 17.51745817108086 17.376277808329483 17.306949392188816 17.345746443306176 17.489902706676606 17.699999376628156 17.91595531616808 18.077998887380403 18.143982392812415 18.098107116474125 17.950099245601695 17.726853670173277 17.46083809624435 17.180471779795415 16.906013707894942 16.6507700768323 16.424381618158694 16.234956592789352 16.089421997486266 15.993704400626973 15.953829851301844 15.976635160781214 16.06772257527338 16.226376686466594 16.44063068425264 16.686896030835108 16.935748518934645 17.160752194542873 17.34504169155093 17.48290731090139 17.577980944156824 17.64096978375761 17.687218778061492 17.732017695955 17.783652724480035 17.838681555656912 17.88451893475255 17.908915183962723 17.90953619825168 17.896303654980525 17.88503467427872 17.88756387737707 17.905220314151784 17.928842866897284 17.943784881381365 17.936598586692607 17.901138224783878 17.842716700370342 17.778285393150856 17.73036747166088 17.71537127397664 17.732147642101506 17.759189115936767 17.764447659621425 17.72276634815948 17.630132766905252 17.50651245487907 17.387324212449688 17.310524313481483 17.30670248498956 17.394292508069583 17.576568236481993 17.83710220182679 18.1357454615515 18.41186916244269 18.599725151974464 18.652698198867927 18.564996718885013 18.377560957720547 18.16221142718961 17.990727028570564 17.90521744992284 17.9054009487446 17.957432074598984 18.016048414126523 18.046141101772385 18.033716255856795 17.984642286648317 17.91598002974774 17.846049199868695 17.78711883816753 17.741974657306212 17.70445486769809 17.663651087060757 17.610322178564175 17.542339714639773 17.465847005491987 17.391736892152608 17.33098017990915 17.29298837480256 17.287227433641757 17.323917627462244 17.41013833313024 17.5428276927103 17.70450382720888 17.86661229827098 18.000155240263503 18.088102337590076 18.132662924539826 18.153186349197384 18.17512351383873 18.214972733107462 18.2690737823818 18.31371528825443 18.3185581302824 18.266462124717304 18.1667527925257 18.052126549361837 17.96092520819284 17.91719927907863 17.921392747536906 17.95472480439032 17.990168768768672 18.001299538248993 17.966333819524934 17.8704022045318 17.70915118473486 17.493068827775026 17.249237594358725 17.01772097638463 16.842363158186952 16.75842464715345 16.781166806401192 16.90003865641348 17.082010125381142 17.284033478508263 17.46931490724627 17.618603250071445 17.73016470663409 17.810122903528605 17.86196690828296 17.883646158253036 17.87322491820125 17.836648306123 17.790105104950616 17.754689461630704 17.747272568668183 17.773623507682018 17.82721040965425 17.893011991715706 17.95342449019468 17.99373527572494 18.006169803016174 17.99230094339539 17.963029844614272 17.934735798344356 17.921557568880676 17.92712249430955 17.941261525874815 17.945026110774503 17.92151331758269 17.86546860749724 17.785242508219657 17.695867079629462 17.608119132641196 17.521477824475802 17.426439598570894 17.31471053076988 17.189472886180603 17.067830672644163 16.973974488657557 16.92868936820775 16.94239778185712 17.01453267002108 17.13668234434881 17.29557051356678 17.474621761570337 17.655617743640185 17.821597909292322 17.959649281451465 18.061042497241292 18.118211200104707 18.121521624799904 18.059942600435182 17.92687838973784 17.72774102445911 17.483485176033202 17.226658314838534 16.99191425483494 16.807032442125305 16.689643067681384 16.64947165064375 16.84961830551272 16.97951060643423 17.158712002750004 17.353721719195352 17.518308616918784 17.610078439148538 17.609415067873424 17.529080869674733 17.408382419960926 17.295649913875554 17.229193371485792 17.22558372556569 17.277538614648996 17.358390812234372 17.430035181438566 17.453951130430138 17.405107442303454 17.284932920800497 17.126230522977114 16.98460793189703 16.91788949815817 16.962501345197094 17.118368015525864 17.349232267238488 17.596749103256077 17.800324369702135 17.914090727623766 17.91611430281657 17.809059063704474 17.61413626193331 17.36159583379861 17.081632394141053 16.798816050929382 16.530868914832237 16.290149150781648 16.08551765085535 15.92370591872656 15.810855307271199 15.754418629299744 15.763761090367648 15.84742893497004 16.00752579882042 16.234811741633713 16.508578423352585 16.80203371618036 17.089659659920457 17.351923953301018 17.575876135917216 17.754036186674252 17.884287366396887 17.970206229542075 18.019017204940724 18.03680721797624 18.025209356270103 17.984143132690324 17.919481702658643 17.848444326444493 17.796061123953272 17.78339804158574 17.81552080417717 17.87771406117216 17.942184662703838 17.980422238176153 17.974320543660987 17.922150619502183 17.839066713668547 17.75269308794133 17.693713245720524 17.682761159609687 17.718883592095874 17.77715037443893 17.81914918702075 17.811651533972256 17.74277860302439 17.62685412344151 17.497047198741523 17.39228140789729 17.34625735036549 17.381630787912716 17.506585814441735 17.710256987152945 17.958398948576562 18.195667645762665 18.359707621796716 18.404652220840973 18.323210059056358 18.15390249836118 17.96645533325151 17.83100768462107 17.787378986879034 17.83095532558968 17.92113157215358 18.004731373750705 18.040068484877434 18.01040894848375 17.92402997894335 17.805122016047235 17.681938487848026 17.576875228959437 17.50065233996118 17.451348327859776 17.418200760967302 17.388611243117506 17.354927984860712 17.31731890666919 17.28178878333333 17.256294906105463 17.24888687723023 17.268366318379048 17.324008502362343 17.42139298972066 17.556047127955512 17.710149789538775 17.856244831062078 17.967212955999322 18.027612613889445 18.040483380029738 18.025756716638494 18.0101526401396 18.012658231622503 18.03310846132574 18.05157790905182 18.0409673820001 17.9860194388321 17.895817138478964 17.80018992950144 17.732204887754396 17.709419405304843 17.726461602104404 17.76135845697357 17.787829495002136 17.784305903393243 17.736735110510043 17.638389849210853 17.49059372882525 17.304978945794776 17.104927673368053 16.923483617465223 16.7967245857685 16.75385046967162 16.807105994773696 16.9458017768947 17.138396159190055 17.34358761116949 17.5259161453157 17.667163037558666 17.766651001434756 17.83154673113441 17.865919375817075 17.86739922276552 17.83283952804931 17.76667279498181 17.684365470717243 17.608416361981433 17.560216357358136 17.55296746687076 17.588652475328757 17.65898617466909 17.74886227242113 17.841000539057724 17.92097969071923 17.98163941146645 18.025019197736714 18.059806187087904 18.09421365230702 18.127980831571662 18.14948565334317 18.141368385247215 18.09161456652822 18.00223942679137 17.888963477056183 17.77165233062492 17.66200413100015 17.557272516445106 17.444847339760106 17.314656964489405 17.17043893027283 17.031906262709747 16.92692810542016 16.87987077773275 16.903534738682467 16.99765969450462 17.151691998413988 17.348034510618156 17.56436063127403 17.776098354704835 17.960021269946942 18.09782847144582 18.17760819982966 18.192685788014288 18.13993234582027 18.0202112079099 17.841325799023576 17.620777159025078 17.384861387636935 17.163049585005812 16.980338083461653 16.852309111811387 16.78592928843547 16.784307789149096 17.116459806324848 17.239747487856775 17.392255823211325 17.5470767692