# vtk DataFile Version 2.0
Really cool data
ASCII
DATASET STRUCTURED_POINTS
DIMENSIONS 200 200 1
ORIGIN 0 0 0
SPACING 1 1 1
POINT_DATA 40000
SCALARS temperature double 1
LOOKUP_TABLE default
18.48377995361399 18.14909069467259 17.779346767329002 17.391137794826374 16.988451758318746 16.577142691669692 16.18675942028822 15.875002244053835 15.705464707158093 15.716305386671467 15.904493481183273 16.23053707654109 16.62935469819686 17.0181204303736 17.30916194943791 17.436203412638044 17.382866975263205 17.190901159916105 16.93972430000212 16.712615488322037 16.571599610051575 16.548667389260586 16.645732276995577 16.83591396480639 17.067998647332875 17.279775539066453 17.420424767879545 17.472181075455506 17.455476230233614 17.40948746515053 17.360526092076398 17.30411893970678 17.21517207821166 17.07487319023823 16.891004912705995 16.699709162702458 16.55347451834126 16.504413024835657 16.587117557330416 16.803847260792914 17.118061813139867 17.462185771871706 17.757804242986538 17.938469517351024 17.96595811536989 17.837206792677776 17.5820207220384 17.251931753058575 16.905038670021767 16.595593578006042 16.37095641282648 16.26823869944849 16.30377130994094 16.460921278690137 16.689553151312083 16.922867103716282 17.10265258481521 17.198034533240616 17.209705165327467 17.161692718480765 17.087289909236866 17.015878853103654 16.96641825457142 16.949729036498066 16.97461427680773 17.048832480681323 17.1715720466397 17.32472419681334 17.47394740176158 17.582453005283675 17.62890748702849 17.617328264715965 17.573102225259436 17.528506493190992 17.50741224529814 17.519173126535275 17.564548896539222 17.646331703154118 17.773581545536548 17.954824616306666 18.186001351927764 18.44408744353407 18.69295937310451 18.89812608478773 19.040500996630016 19.121444249110443 19.157222358250102 19.165547560981985 19.150814021954567 19.09758946517418 18.97866316253816 18.773967025867652 18.488658724061903 18.15958195668436 17.846065311193428 17.60868034664461 17.486976657170676 17.489468749669086 17.59973813923424 17.788604629205608 18.020871352329674 18.25742408069433 18.461291240429702 18.608564759495817 18.693249729823258 18.717535467563344 18.676057693148753 18.55323877427944 18.34055691128497 18.0575365208253 17.75315894716107 17.482599103926198 17.278631400651715 17.14222821941729 17.058258141086903 17.01964293067968 17.0389729603958 17.141175632920916 17.346094360426026 17.65255425327432 18.029772950207487 18.417921449678296 18.739924197103008 18.925503890439238 18.94062014202372 18.805466457079806 18.585900645890618 18.3615038829687 18.191814998136866 18.100790221594742 18.08092428340521 18.104240486157384 18.130991086121085 18.118387693138462 18.033389436049912 17.865227168088527 17.62927699878518 17.360170193511202 17.09925355547023 16.881720334395077 16.72655690106913 16.633157007476374 16.587844491668722 16.57812615633933 16.60659355221332 16.6950578414185 16.874177563619224 17.162533038003037 17.546631103664055 17.97462058415778 18.37029329326976 18.661756710996062 18.80736280970657 18.80213749804212 18.664559663118393 18.41997274261862 18.095633221009667 17.72678711840844 17.36094411615853 17.050091924939064 16.83374656025995 16.725882156404307 16.716058137912704 16.782216004639565 16.90273232636332 17.058491591148865 17.227502894024234 17.381771525709702 17.493005557525382 17.545354653981185 17.54629880748518 17.525438102594915 17.51799671652618 17.54217449488696 17.58656390164706 17.61715344861781 17.597797517818968 17.508443083088483 17.350125609625305 17.138283123769288 16.894281486258834 16.642856557696067 16.414025382495524 16.24225694332886 16.159861147326676 16.189399540822052 16.340659949724348 16.61146703521758 16.98762801326781 17.44020527368942 17.9236483660729 18.38048322424257 18.755255694886554 19.013102966984217 19.15137958976363 19.194010138207876 19.17051304613105 19.09525927891771 18.96268239927471 18.759832416503077 17.997953505200215 17.719460314293737 17.42826133572247 17.133001878236183 16.82880845596297 16.51201932010759 16.20291868890269 15.952271446670084 15.82149834183207 15.852463658504787 16.050369401439013 16.385144025509295 16.79878862420082 17.211239449897807 17.533471668926566 17.695598541308524 17.677576612456008 17.518809615396254 17.29796984225835 17.098637075539166 16.982903137726595 16.980880293158936 17.089664730842056 17.27565209683331 17.48199428838059 17.645262500176308 17.719565471183145 17.697136669075505 17.60957133151446 17.50349993700836 17.406456604744804 17.310864029451174 17.18895573459588 17.023251251360357 16.82628045094176 16.638036767422 16.509391445237156 16.48446439055202 16.587513555191254 16.81433064518626 17.12929944923804 17.47105622652497 17.766653625343242 17.949432795116238 17.975312653154795 17.834192311898274 17.552880428903833 17.18670317943308 16.803629488304207 16.47043536576427 16.245181894127654 16.170178563804598 16.25996138005684 16.490174124613205 16.799591218026805 17.109218538471854 17.34886332748155 17.47742973499078 17.489944820324823 17.412216757651095 17.287260715417048 17.158868455123194 17.05917739392253 17.005367188519877 17.00387462439203 17.05485319686723 17.151654953474683 17.27727058945452 17.40388033651587 17.499574101951527 17.540732894857367 17.523593729321767 17.46711100333786 17.40375186485655 17.36395421174575 17.365796722971485 17.416765086689814 17.52318674353859 17.696012701387833 17.94499626285008 18.263957224514627 18.61937667347717 18.9543779590421 19.208985468165647 19.345244822269592 19.36269444442608 19.295409589698835 19.191188361968454 19.083656003083657 18.974287867352984 18.83653410454605 18.63929575418571 18.37384143697409 18.067277707488113 17.775103280456772 17.557565905183424 17.454094280070034 17.47129173895732 17.58882737769429 17.772781546895818 17.984177163725203 18.18259814121189 18.33301954560232 18.416795669316457 18.436062065328688 18.4030711048007 18.322879078390056 18.188416228888492 17.99539046879993 17.762168981806568 17.532259065149468 17.353357119159263 17.250186025742053 17.214901102573506 17.222558714775005 17.2567194104001 17.323845292580877 17.448085733349505 17.65338255555804 17.944261322364014 18.29348344654956 18.64168304333227 18.912024927598488 19.03809879092975 18.994393670269982 18.81144421229956 18.562928928229187 18.331330125730936 18.17499711510448 18.11462735228857 18.13750460975572 18.206516053125302 18.268232043231475 18.265412022133336 18.156737395852797 17.934735020195458 17.629425087598023 17.295401464265222 16.991128853244426 16.76041771234681 16.621510867092123 16.566384600514453 16.57056884700896 16.609580147237732 16.674238588615353 16.776374517593787 16.94034018521184 17.183899339994056 17.499444133197283 17.84748242654142 18.16833074447475 18.406875160963637 18.53435028211916 18.55154458551707 18.473833395919737 18.31479449031967 18.08396617206258 17.797800373247192 17.48905604964397 17.20218410378967 16.977060687921714 16.83495247127236 16.777443680050823 16.795567029929916 16.877485718075206 17.007655574814255 17.161584994252546 17.305270739010826 17.40398259777183 17.437419130929865 17.412202335076746 17.361096520726175 17.32501467516676 17.327496725030418 17.360297989013816 17.39116481076539 17.38591871378218 17.326250323222023 17.212286449558412 17.054529050804724 16.86711471265817 16.668524512565863 16.485048592712072 16.34878448149596 16.28930752044135 16.326218271769612 16.467947130884323 16.714054827372294 17.054853561162215 17.466641906146695 17.907186299101614 18.31860838389096 18.641690191215535 18.837223405649077 18.901451866147603 18.862988965749427 18.761471668275767 18.623624409965984 18.454360219544892 18.246568653600264 17.477233692878876 17.29817395593044 17.1324348944007 16.974700770531605 16.804972728041157 16.605277153626922 16.38452685954769 16.1875400058478 16.07712129023112 16.103615982728794 16.284947469318222 16.603956615611107 17.01246966904505 17.43529080637026 17.782472511794882 17.977906254475524 17.9927491872414 17.85958661702709 17.656055835040764 17.47043835814113 17.37074482675672 17.388393041654034 17.51472656004073 17.706296525186538 17.898175760671887 18.024898863014283 18.04485618827383 17.957997052220477 17.80349080201351 17.63331392897822 17.478298183960717 17.333582529872796 17.174477832898038 16.986390458412156 16.78290166281097 16.601410001708274 16.48562208627413 16.46924774891663 16.567144307076287 16.772138622695515 17.054778859731794 17.36613446487141 17.64497778204175 17.829600778885474 17.8731417671169 17.75867344222883 17.50666482674753 17.1690169826302 16.813344372342094 16.508236899798522 16.314537950619467 16.276848526884553 16.41002789295229 16.68739763368708 17.043270300421806 17.39305247195695 17.6607034927586 17.80021083862306 17.804490450457365 17.701827901607103 17.54246694734312 17.379714372293524 17.252917464386194 17.179884505161205 17.16057421969232 17.186420045102366 17.247349763359573 17.332264932909162 17.424643493256564 17.499833607882426 17.530937909056785 17.502925767015686 17.42461736089417 17.327185893500666 17.24936030029466 17.22160548995885 17.261085971694296 17.377863600521327 17.58215116794789 17.88128397402313 18.264860932966663 18.690098662246985 19.08374174517168 19.36571416418331 19.482947100248413 19.433861952744866 19.26845867770219 19.06185700581843 18.875099247065297 18.726759310708033 18.592948936322333 18.433855876501053 18.227274165118562 17.987397824158624 17.759281206760644 17.595032802722105 17.528038959190205 17.561045835195294 17.67188567706031 17.826597198455392 17.98823328374215 18.120971846987363 18.196780727144127 18.20532209068937 18.157097654227435 18.07225330166591 17.963347084303575 17.82993345581562 17.67159868359544 17.50550790937899 17.368152317981618 17.29618445943688 17.30216590961642 17.36705949683342 17.456677237771007 17.548120966522006 17.645268062078635 17.774138088394228 17.963943818369206 18.22500395812016 18.533425089106522 18.830431906915052 19.04028835307868 19.102298449465483 19.00193121642163 18.781603878585788 18.52153350665359 18.302322264821665 18.17430122121991 18.148930047905797 18.20601636626074 18.302291831898607 18.37821987156621 18.371276688754985 18.238412168762736 17.976276181575418 17.624651379359722 17.250554090839493 16.923372547023614 16.693199939058257 16.578897963970157 16.567879975834447 16.626869504150626 16.71967951276701 16.824760382707115 16.943575731898235 17.094047799491154 17.292452517565778 17.5356319646848 17.79547127677017 18.02987515617276 18.203756953091197 18.305017171574423 18.342659296719166 18.32960517058929 18.267307517869686 18.14680438887982 17.96406371509033 17.733755357064663 17.488174258196 17.263254606588156 17.085207027665287 16.967901162893963 16.918050305857566 16.937836390859704 17.02031453810051 17.143330784283062 17.270472299953237 17.361883587116793 17.39096177535018 17.35831612216134 17.292699495562772 17.234172466294684 17.208519633706015 17.21229004807261 17.220300865015968 17.206782702512626 17.16035979266833 17.08311817753898 16.981315092548055 16.8609199698087 16.732021288985255 16.614257950281786 16.53417919653502 16.515577028535592 16.572194414922574 16.708449089132856 16.923868564922905 17.213213659442136 17.559764141338405 17.927292922324703 18.26020061920111 18.497986682575807 18.59979695289573 18.563865323919565 18.426451361481423 18.239303456210756 18.042255110746947 17.850697935777728 17.663140389941706 16.987497292128605 16.9300767238343 16.915267153119938 16.920326689789455 16.90541568640591 16.83413626992374 16.702023963550317 16.54854920211499 16.440490517052964 16.439844236558685 16.5796608095703 16.857101487228707 17.235186994215674 17.645700085755344 17.999809673129285 18.215257197744183 18.251789321689806 18.131744210521084 17.930503309295116 17.743330468844718 17.648293797078473 17.681253496600466 17.828501451881447 18.035785648807884 18.22894114856328 18.33937491764256 18.327596637192407 18.197143286598223 17.989838488432927 17.760335472173068 17.54465474074652 17.346131893129137 17.1483364876516 16.940781307042034 16.734779613720168 16.559816138780096 16.44843429974822 16.42309760994025 16.491453013746824 16.64740810559408 16.87246302444688 17.134992934091596 17.390016728055365 17.584431515713582 17.670642677232834 17.624447356174677 17.45620513262576 17.20708642494279 16.934576109927896 16.69927528774435 16.55782008931927 16.554679486018326 16.70708276056334 16.99116943295662 17.343644554269424 17.682286698505422 17.93401789995083 18.056378036793294 18.04576999048271 17.933127626745243 17.77015266704108 17.610193323854958 17.49026336498639 17.422198769673024 17.397138504768908 17.399351866544475 17.41927523462735 17.45614746223425 17.508280346260293 17.560350675515966 17.58259074744274 17.547300154608298 17.450275119913734 17.318254570805433 17.19642561868043 17.12773179830272 17.140207872296227 17.248461602754595 17.46154303677188 17.783278027703137 18.199091180652182 18.659870111498208 19.08185370937839 19.371475982181423 19.46472131535155 19.358585830288398 19.11463165564115 18.829384964512307 18.586823365735448 18.421363704487188 18.313473306917697 18.217156981508175 18.097422013900516 17.95290588998675 17.813043202499802 17.71670974822508 17.68890587356662 17.729925401667035 17.81981701601711 17.929206384119443 18.026931530439715 18.08439760886465 18.082300564945125 18.019264971458245 17.91321069949008 17.78957887514702 17.665099629497032 17.543323728193016 17.426667654169812 17.33118230063672 17.286218839731095 17.316249946493596 17.42024989696833 17.567815560868812 17.717351856014492 17.842599458898235 17.94767925257061 18.061950947411333 18.220023422888076 18.43768233137557 18.694532856999345 18.933292297223964 19.080669036965798 19.083054587527826 18.937752719904733 18.69844620336713 18.448869144909022 18.262409958396177 18.175274804635592 18.185190708868767 18.26382451529722 18.366024927045896 18.434519656403193 18.41088774080215 18.256500358011795 17.97206889781735 17.60123373745906 17.215203243387446 16.887944210111726 16.67362339754824 16.593011293144897 16.631368456548522 16.748121204270063 16.895706978837318 17.040484521100886 17.174771400938216 17.311833287740875 17.467277492351197 17.641189317787486 17.814195763279937 17.959474368390985 18.06118676894475 18.124533960645525 18.168189841019156 18.204926188456263 18.227570191244 18.212756917188 18.13876951610366 18.001880580244606 17.818736796533788 17.6163352159367 17.421328476057262 17.25699459533332 17.144725051464377 17.10140388704938 17.13060682231421 17.215121664980305 17.31904669759495 17.40038465706418 17.4285698697283 17.398566712290126 17.332479563053308 17.264389884636415 17.216909475560016 17.188131857163324 17.159969263255544 17.117867876185166 17.061807035938926 17.000734124287703 16.94090728363424 16.882510323083906 16.82699368552447 16.78480711334413 16.773436980981764 16.807717267701914 16.893190523347272 17.028608210731733 17.21240954537155 17.44345851500677 17.712372887202513 17.989894177601435 18.224434375278502 18.35699296505505 18.34858928484696 18.202498946875643 17.963848300375332 17.69549968270982 17.448178391825156 17.24599332783984 17.09287827636534 16.605376030858423 16.662064651850717 16.790051437923637 16.950447255336613 17.083251048468757 17.132658368917742 17.08005539219467 16.95929816407561 16.84114481970611 16.798994078703775 16.880135452069595 17.094898514820734 17.417317384875883 17.78803526016856 18.122882593744503 18.33666626752936 18.378622053773768 18.259223450318636 18.049161343673997 17.84947644668248 17.749160416555075 17.79088016292067 17.958591060270265 18.189332649686282 18.40050444353123 18.519338914610266 18.50519060666882 18.360049255230496 18.123077038523626 17.848575722652658 17.57847287998704 17.327775357152607 17.091760447732366 16.86516632910257 16.655651678743283 16.482541275981312 16.36604090758263 16.318208227536534 16.341991647997062 16.43544028402348 16.59356845759138 16.803801600109516 17.038728700471665 17.25520144940574 17.40602770115432 17.459620999416924 17.41376709830604 17.29381212705846 17.140318202422506 16.999117922216055 16.917560703405005 16.937628580594623 17.079518703926666 17.325514228165986 17.620586903223177 17.893266440103794 18.083685925906735 18.16283521253997 18.13651645345137 18.037154110307874 17.909532655123673 17.794875545630827 17.71705451162065 17.676406012483728 17.655769698150213 17.636589619325786 17.61461425332884 17.602489338958947 17.614775032278743 17.64665061203939 17.667040751796833 17.636365291597844 17.53573973291162 17.383217949980562 17.22543929664902 17.11439944069634 17.088222432986484 17.167258997476495 17.361172962275237 17.672005100785345 18.08344983071737 18.544475088826612 18.96721117752112 19.251007200606114 19.324329916145544 19.181249129543378 18.88899655853056 18.557985933806883 18.289201989279398 18.13033407485741 18.066548047184206 18.046922491787367 18.023836922655473 17.978852613296723 17.92376774807832 17.883664354087106 17.87731315519166 17.907131304058794 17.960701432663225 18.017286187614975 18.053142042315283 18.04625980296306 17.984015547882752 17.871290191981085 17.730355092463093 17.588626080455857 17.46374768454835 17.360741054711855 17.283774994210933 17.24831693928057 17.278091776704155 17.387095532921258 17.56242950057644 17.764361230395217 17.946215839118118 18.08030216750727 18.17179893509871 18.253099959476803 18.36358178679117 18.524602857672495 18.720634968065152 18.898063086186784 18.987896176638596 18.944099124084815 18.774388192886263 18.540375536976207 18.324605142688977 18.188278967536135 18.149605366554788 18.190991958299232 18.277457798561837 18.366736543858995 18.410949554160617 18.3629091825817 18.192463970435863 17.903400419587566 17.53784157170756 17.164363550011384 16.85643578714657 16.670470701171766 16.629933473849082 16.719626150445425 16.89300332168984 17.092020481726692 17.27218037385828 17.418794778308925 17.54306102160517 17.661545511278156 17.77685298998197 17.875040931436487 17.93980522100585 17.970032112844155 17.98529209173466 18.013579955571384 18.070485073293472 18.1464500236796 18.21165205525153 18.233525701266657 18.193192307673744 18.090652431059173 17.93989227378094 17.76262647334397 17.586213215077144 17.442243610666512 17.35907352612339 17.348870912127353 17.398729123483058 17.474320128414615 17.534904020601058 17.551420137626884 17.5187217505705 17.455007458895164 17.386753863664758 17.328379208619026 17.273723302411124 17.20757397643171 17.125154949929282 17.039462326493187 16.97064061939179 16.93050676236475 16.918029550001656 16.927848412499515 16.96016185910386 17.0208401850566 17.11339254579401 17.2337076326351 17.37398470370422 17.53060380530855 17.705247137041503 17.894742669519417 18.076888400585112 18.206415766781838 18.23019604236374 18.115656996139602 17.87312262726685 17.554535529206024 17.228570951120563 16.950812857988414 16.74990144074178 16.63420921015917 16.4020064740035 16.538471640878797 16.767658309945745 17.040705684776565 17.28263875942366 17.42185429407933 17.427221407353567 17.326415319414483 17.191626716932408 17.10380043842883 17.120159060108808 17.260422796592124 17.50762522620577 17.81222827999315 18.09887199196538 18.285185707461647 18.31437109422044 18.185843788281048 17.962603121445415 17.746981092699105 17.636133841405872 17.680423014982317 17.865439434154297 18.12409960897568 18.367977387428077 18.51957614041239 18.533801158918315 18.406390611783987 18.16927945469586 17.873295246746984 17.565150882123977 17.27195549630598 17.001693414504064 16.75523755471351 16.53745183419739 16.358721862116067 16.228813621378734 16.151904699598298 16.12879149940354 16.163120548239142 16.2628559274934 16.432115454149788 16.65846393572663 16.907611068648862 17.13355956460383 17.298768301699013 17.38887012455623 17.412138397535237 17.38972035294055 17.34961573406237 17.32667548590369 17.35751501656289 17.463670772947868 17.63439354672163 17.827141825711053 17.988888929262956 18.082747332015067 18.101942648803536 18.0657339392111 18.00498038203065 17.94813394284729 17.91250167547599 17.899924661577987 17.896878130034814 17.881921584996956 17.840439202816583 17.77851651757905 17.72328912051224 17.704022296150146 17.72532467722494 17.75588557089877 17.746126743509457 17.662357352113936 17.510398010355047 17.33266975983291 17.185257251313267 17.114257171350044 17.146657889541128 17.29534787005914 17.563739373413743 17.93747226716196 18.368403006091466 18.770398833133203 19.041067419437407 19.103855636440194 18.947992149589098 18.64054232944973 18.29842679181121 18.03339758956927 17.902688880658854 17.89460147153374 17.95270210085777 18.01640527087836 18.05047837714422 18.0509566969132 18.03309945898146 18.01500461212607 18.007130570775633 18.00952334923525 18.012919170677502 18.001086180759422 17.955944849220067 17.866868868227098 17.73955585009536 17.59573502512709 17.46116557611485 17.35197207734445 17.273055721132742 17.22959976349287 17.237006295100592 17.31540507305226 17.47160487226165 17.684733889934744 17.909399086156846 18.096366864412754 18.2172647331581 18.27749562658211 18.31108880814651 18.361474730150736 18.456343795220835 18.58718579124869 18.706596567234048 18.751284224539802 18.681741456569295 18.51234513998291 18.30727161314101 18.142860157896166 18.06519930797086 18.074234023129367 18.13889443546315 18.22067668617536 18.284097280524822 18.29485811272152 18.220508799794825 18.040903382520195 17.76169238881448 17.419977230515965 17.077345041630586 16.803096850171155 16.653790431717777 16.65515592815137 16.79240587552629 17.014728684615903 17.255796214599176 17.46273602150838 17.616466624992277 17.728602414566904 17.818374205054717 17.89074041532291 17.934226234549175 17.937401827751547 17.907014070189938 17.87121950211324 17.864880865239787 17.908605915869952 17.997063650264234 18.103102789129682 18.192158095630006 18.236327839769068 18.221224834720676 18.146369871657 18.024243928302408 17.88024981544734 17.74955506566884 17.665793697347798 17.644641333478425 17.67405721411628 17.720361789225088 17.74672097594687 17.73187970319824 17.678572340778096 17.607395958570716 17.539212641614533 17.477730810978837 17.407348490170868 17.31010984188062 17.186708021055598 17.06145681508129 16.967264317937577 16.925692640181957 16.939343355713024 16.999438680006605 17.09697720285554 17.22561079475735 17.37661072632655 17.535719328536878 17.68813747616632 17.826897224822705 17.95410261928093 18.070425265402882 18.160526401022732 18.188912508862423 18.11446022493692 17.916353421762278 17.612796784990035 17.257589031278055 16.91641300912684 16.640598964602678 16.456814193198937 16.375294355577108 16.417633301899347 16.586766101113916 16.8560030104165 17.175443834959314 17.464521845424066 17.643677045942383 17.6737987637115 17.57663418813589 17.422097243382634 17.292524874355657 17.248363319310197 17.31295564157408 17.47463964184109 17.693223810493095 17.90570747483157 18.039322928497725 18.038218089352924 17.894025915709253 17.659657142737142 17.432475372678645 17.312181963198476 17.355688043271453 17.553909388746746 17.841188633351933 18.127099670846935 18.32996057881643 18.39828073093515 18.318664919769137 18.112860497584975 17.825213300138813 17.504125650266417 17.186089688914727 16.890325492313693 16.624320130059594 16.39259071717302 16.200345115022618 16.051138886006136 15.94521080648017 15.883888696465524 15.876480269297618 15.940412359465073 16.090290534031674 16.32252435360414 16.608639190605295 16.904875604491703 17.17136659450722 17.385486418565364 17.541248202197874 17.64184129666174 17.697365201682757 17.728271901127872 17.762442550224886 17.819486542859444 17.894548566780326 17.960026582625584 17.98701627599244 17.968470991635854 17.92482682816126 17.889246493938682 17.88622369241951 17.919613081353077 17.974714804896454 18.027327160544733 18.05223735275209 18.030874752119697 17.960561306205403 17.862068434987062 17.775889929410713 17.741362991729613 17.76839081847942 17.82447666238774 17.851682755257087 17.802916529374958 17.67063555768561 17.48940096681015 17.315203250438138 17.19956599447192 17.17608653828858 17.262779216484816 17.467225280167614 17.78023097316705 18.160311073140974 18.527360780528802 18.78120927406161 18.842361304627048 18.6940956851897 18.39904157072957 18.074660457210936 17.8376822193612 17.75040086734947 17.801217631078533 17.926445890487336 18.052394520394166 18.129255755210906 18.14220043685428 18.103328776358005 18.0366714388589 17.96574670599981 17.906030971472493 17.86084151390779 17.82069070272564 17.768416847582657 17.690176371378318 17.586231240783768 17.47238111862485 17.369519088852908 17.29104464992776 17.24138143256715 17.226401025985705 17.26143616461977 17.364291960052427 17.537690530416388 17.757221668153793 17.976220246946273 18.145744394017147 18.237371451308356 18.255695170215482 18.23497615600018 18.22201341383493 18.251232399896875 18.3223410779929 18.395333200358408 18.41256136860144 18.33862381824446 18.189790150133433 18.027477594239738 17.91861948232895 17.89471505427921 17.941007370942266 18.01732630206358 18.08495140987737 18.11691631740561 18.09312542760851 17.995926456333716 17.814942772024853 17.55712352600771 17.253353502042877 16.95603863055264 16.72716696147655 16.620166719956384 16.660981527921642 16.8354952339569 17.091289735662357 17.357792691617412 17.5776907306798 17.73035730334762 17.829590911925596 17.898366010081997 17.944083315862965 17.955672565231115 17.921537503054985 17.84907713599118 17.768090911198904 17.716348394010534 17.72001254224588 17.78277388978197 17.887692849130598 18.0065637528617 18.10988370035536 18.173944559111906 18.18550330034046 18.145775214179807 18.072978537459715 17.998794254234618 17.954887479877847 17.954325489472037 17.981753494998994 18.002492623722603 17.985059671381677 17.920591411367646 17.826259540592112 17.731323401075613 17.654886810462312 17.590616681363016 17.511453999998544 17.392933384580576 17.236696572081108 17.07440579633926 16.949772257473807 16.89489915438437 16.918986336154838 17.01344695953241 17.162957958583355 17.35068543186483 17.556647054825113 17.757040176126523 17.929940837908564 18.063390179189323 18.156706120706154 18.211282043681635 18.218304952128396 18.15601178647812 18.001969940167207 17.752441742433103 17.433668611045704 17.0954373676354 16.790858008578283 16.55717652379426 16.411522413634277 16.36176156614239 16.64305194150903 16.80359638276644 17.053709236741504 17.350735559531618 17.61898796334434 17.78099571182656 17.796595819191722 17.68361379754253 17.506656040330967 17.34303636807478 17.249074686317527 17.24536222236908 17.32112339634628 17.443835321244407 17.564888427485304 17.626947906408866 17.582497191019893 17.42020009439341 17.181912408467717 16.953869392626604 16.83125876579158 16.8742741675411 17.08118576869223 17.39279281045032 17.721182177721438 17.98267469781899 18.119719231056486 18.109332869921328 17.96186138957192 17.712380612880306 17.406449538435197 17.085053062834568 16.775595643037114 16.492354105369678 16.242628241652074 16.03117879814221 15.86036477504621 15.730820824531841 15.646882355324916 15.622546592015624 15.679376901940284 15.834073828529288 16.083965013203457 16.402618834959412 16.7502060084576 17.090063358587532 17.39785350638748 17.65886792622309 17.862028653850075 18.00097167499355 18.08070697230717 18.117437870092612 18.1256640933003 18.104852933523123 18.043127343114513 17.937972234775224 17.81396958384147 17.718202862283306 17.694234276284515 17.754898290344435 17.874658151473255 18.00483422018732 18.097469251722863 18.122082669844783 18.071440175355672 17.9618154208525 17.831052786746362 17.729862612127093 17.70106608676072 17.753639019521728 17.8510658062116 17.927957151475034 17.926380045334966 17.82701809400499 17.65586525114762 17.466356983849202 17.312892358693993 17.234480668145352 17.254738619789702 17.386911986040236 17.62873875377442 17.94726934618968 18.270723345118224 18.503887341989653 18.566678296331023 18.43707709580775 18.17140142010035 17.8835715649586 17.690200156169116 17.65384002596261 17.75941991554968 17.934290143120425 18.09241575353592 18.173077858014462 18.156722393010547 18.05920857201265 17.915943990399548 17.766154296678756 17.640990080402823 17.555487518414036 17.50561056356211 17.472909726684282 17.436558197036234 17.38654370005416 17.328458174095218 17.27602768737202 17.23959850187696 17.223539040610664 17.234426478276795 17.287130936908877 17.39739010335308 17.565780214866408 17.767969500136246 17.96019774073082 18.097109610570126 18.151808871863672 18.12805964871269 18.059372143068412 17.99448584344393 17.97295572617169 18.001182383751765 18.045254891214313 18.051673224089267 17.986638090833356 17.864789152301167 17.74192395331239 17.675756418535826 17.687245391191166 17.753000092454425 17.82873937858553 17.877483048441967 17.879893402384518 17.827823789017984 17.716355321944803 17.543994270920606 17.319305872657658 17.06732360050726 16.830017602950317 16.658497847678596 16.59842573969691 16.67277575374202 16.868445594080043 17.135455350235947 17.40489880868409 17.620163579597786 17.761766335104358 17.846168562614945 17.899779203658746 17.932090321599073 17.931192760801405 17.881856902572252 17.78646962807232 17.67044492829613 17.570394021239807 17.517199930494503 17.525827219925848 17.594096783186025 17.70625951709305 17.83802544618907 17.962499152701838 18.05729157082043 18.112123088014233 18.134048656478086 18.145098779934962 18.168803574624842 18.211179761174648 18.25141968612377 18.253488421717982 18.191807065769215 18.0709580075867 17.924271641608733 17.7922658289671 17.695541255261627 17.620969628077873 17.532316362425572 17.398917875753586 17.22114716133465 17.033752023754385 16.88654269600132 16.818997725242085 16.846535437756287 16.963044196503922 17.15062834469177 17.385792641821777 17.64030330851476 17.88256887304557 18.08366779562041 18.2247927837136 18.299065308259514 18.305463052769777 18.24123182448773 18.10152782746128 17.88780651867199 17.61729989147402 17.32424110092301 17.050095206477877 16.828483997641396 16.675158422815088 16.59116242057387 16.57692714570911 17.018999195215414 17.149642470803805 17.342216894193815 17.5659