# vtk DataFile Version 2.0
Really cool data
ASCII
DATASET STRUCTURED_POINTS
DIMENSIONS 200 200 1
ORIGIN 0 0 0
SPACING 1 1 1
POINT_DATA 40000
SCALARS temperature double 1
LOOKUP_TABLE default
19.00019415154929 18.180121687303508 17.387370304568154 16.88482084347089 16.561939360710966 16.100946375163637 15.410733120279039 14.78434310821693 14.612423802469559 14.938956672528038 15.434144458341562 15.90111041886303 16.470685466300058 17.24198403036838 17.875327680496103 17.92679560346283 17.42444074461558 16.79399918131884 16.425278071101882 16.323312862558716 16.212883276662048 16.021659146108753 15.978819904100375 16.236142912172475 16.720836894194772 17.26567491148557 17.58484263886959 17.42395660253796 16.954664142130348 16.716909521633006 16.99223641147303 17.45757061908071 17.57302159926747 17.192887159120932 16.616821032300777 16.13526725853901 15.799347134340083 15.631504215955031 15.72282432539948 16.188069160155795 17.00233799584436 17.89307798775728 18.564109771272634 18.932125305944123 19.01094095794416 18.718651772846087 18.049333851418805 17.219469677597274 16.436273679332743 15.746625928452366 15.181559677359614 14.859919299812056 14.917300241398706 15.376434346402146 16.018232641879774 16.528190941873063 16.779241070971143 16.837750392978425 16.780103368213638 16.65055231947356 16.540677468041196 16.503772180314417 16.45753404163866 16.298528242894328 16.118060250361193 16.131148007474913 16.455213772906642 16.984508779212213 17.409226037114767 17.540343585172355 17.42456560984906 17.23971193316594 17.143383004255753 17.26864566269344 17.58214365800462 17.837631410876092 17.8793354729988 17.7686224149624 17.685891446547235 17.790407698665646 18.17479929735084 18.778561213156234 19.330147341635467 19.673678247687715 19.862411403507117 19.94959354198908 19.94483498110825 19.91734521732965 19.95519027079451 20.02408277117301 19.957355229888115 19.677139454492327 19.16435243839376 18.40329039842858 17.494522940507824 16.762598424171042 16.507567103726384 16.63909139977707 16.910051416566564 17.311772074779164 17.898099321965045 18.572573596039025 19.102902522252688 19.25541231848969 19.121295940697607 19.038395151935486 19.15984926654527 19.273216118961592 19.007425751517165 18.253913294817234 17.32616784462426 16.670836633388078 16.468913904831535 16.513846295054336 16.513430733295806 16.440489390285343 16.4331167632565 16.559088769133318 16.83497609079186 17.266208492665413 17.834134715270686 18.465085798892577 19.092830751388252 19.56498388031136 19.590524842282726 19.107117349845744 18.432238328544923 17.907200093537494 17.667218583698798 17.595303733617854 17.60022739941034 17.797829422522522 18.18885623925965 18.527128157151427 18.538223594866015 18.196778978089956 17.68961109938769 17.15747221583255 16.65615957835382 16.345723443970467 16.305445622333565 16.387415567057534 16.45399598288442 16.43053927931656 16.326354667285962 16.21155271600662 16.215771356561103 16.43996970681206 16.996017081629226 17.897529189007894 18.858468346955114 19.424739884724392 19.4511365146133 19.163672705841396 18.778708416539626 18.367044095521912 17.85206312911767 17.15202063375589 16.387846234480033 15.828636597749993 15.673939509814415 15.888917769153856 16.237402714047423 16.550360993091115 16.849351284560974 17.206070376621973 17.581192979190277 17.883820449250283 17.975755543373502 17.74275707955534 17.26775382054962 16.82331846738931 16.717512490105378 17.065184235792017 17.65061416260249 18.123651338137126 18.2593619131728 18.03282573391956 17.642595072496466 17.296881131685364 17.011206575251286 16.63475871122091 16.133833569742244 15.679106124083363 15.403223825016799 15.308986726789163 15.38353194148706 15.682771384529676 16.23972455693073 16.998569187851782 17.858042219632956 18.68379680253554 19.348475073058786 19.774538325296717 19.926039895325932 19.91958198353466 19.9396532044796 19.950407457256915 19.84333759051633 19.558645670726904 18.453515024003092 17.733694181390522 16.99954342962046 16.505961674206244 16.216362115262775 15.833332295771838 15.24933517434691 14.757777338360382 14.693849090878293 15.034310723100672 15.468147574215669 15.89219970252719 16.511563507483118 17.419414914914846 18.21248205362183 18.37758377323413 17.950624470237507 17.40155766457654 17.126490595497287 17.097729475363657 17.016891471145353 16.84724750607994 16.83797657724528 17.114848968464724 17.576439523764254 18.038019972099903 18.189021076590112 17.807730950582755 17.173377380098014 16.890472518518976 17.173737867645148 17.60077290806229 17.615472222882666 17.11035307143093 16.4381537683804 15.960666081697076 15.759385546998534 15.797343483017508 16.04947319980617 16.55502474107072 17.313136356331004 18.13306228502393 18.774854605873983 19.127692629607974 19.156243963319483 18.778034170367768 17.99328212190263 17.010910325135388 16.084685612888013 15.328260385803924 14.790139803091622 14.583643783706489 14.828178239262142 15.48054400352394 16.28077244368486 16.973138220069824 17.472575041134164 17.74369249716627 17.717673445568238 17.406700858845262 17.012237450397187 16.72613019524874 16.548980208068784 16.398530753113274 16.31870560095822 16.412590924321055 16.673141848107825 16.991016159781225 17.241036569232392 17.382431485812695 17.383985567963432 17.24255096869048 17.05472068964751 17.047238210441453 17.262938371955432 17.482937481528023 17.573551908100907 17.55782336761945 17.518295228864595 17.605485634312878 18.039561465495368 18.84509767658473 19.698003673079764 20.291735578132755 20.5121586678656 20.356632768197876 19.949742067254697 19.557917988583455 19.411876803659 19.520693765756235 19.63811288575873 19.50886990655202 18.994655780833906 18.14339038006975 17.19818018181849 16.52033316150417 16.35576598574052 16.54700484453205 16.803544114943694 17.106906972066366 17.56339711345737 18.152172302952003 18.657502522446848 18.805341435194048 18.639560439354987 18.47842424940916 18.4866830690441 18.5115987279805 18.2599698516509 17.614714813288565 16.81853058482656 16.298796809650618 16.294351647202873 16.60944151954168 16.86647114996454 16.96746965489865 17.02220085968396 17.079886328434977 17.205701107155424 17.516493569782778 18.039486802983024 18.65262749936275 19.225920879294936 19.599505569183137 19.51175582826913 18.931766913072657 18.220684847183904 17.72451990264998 17.516002148369875 17.467672391478597 17.556420666880307 17.928309208687786 18.528781678959856 19.005129936395196 18.973661908812414 18.3983548843848 17.589757623258723 16.838301622922785 16.269404519812188 15.98746848398434 15.967329341871922 16.035663243572685 16.110231510390875 16.17191332074244 16.204292740300907 16.221798106753646 16.314090121132224 16.51481747673213 16.90113748781931 17.577600693589083 18.365294376066057 18.8454973982635 18.859159548739253 18.630705121163913 18.40437638622627 18.254137018951123 18.010579749806684 17.480590151501218 16.772232003651805 16.202934010384713 15.988052282869413 16.0695262582461 16.22265524013964 16.356432783284355 16.555329596543817 16.882794878311653 17.271040990420577 17.635968014866418 17.849521793203728 17.745691019246873 17.298162068001766 16.689421382804827 16.293645492843794 16.392239140146323 16.837382890047696 17.263167540755163 17.45452838748888 17.40122326318775 17.247189371344728 17.100635695928293 16.92243648768311 16.57413333722799 16.096011472049423 15.72458407325132 15.557490061938468 15.532568434121085 15.62165508973629 15.897859427218384 16.377835485780004 16.97073651673999 17.63044805015621 18.326972346562133 18.96278982077784 19.389485937303316 19.485478134612315 19.3477233828578 19.2253708103797 19.169475633454233 19.096824306848664 18.90566537421513 17.725215223988965 17.279922389389174 16.808163096656916 16.521356397410642 16.419523294470817 16.188066169529154 15.67245199987488 15.165442885617807 15.014091587846186 15.238536617536269 15.591973350909736 15.998033652649436 16.650247487770894 17.63065337007444 18.552240856559834 18.882500311057996 18.59064974300549 18.073852219559146 17.721317568821124 17.590348705849696 17.49373949788356 17.452506771141042 17.632107506815466 18.022525035174183 18.467408598270232 18.809238094325757 18.795216250587394 18.274505216623258 17.56834662856353 17.240025497410763 17.429582658412443 17.724126620551328 17.66648547628537 17.202123699525377 16.631052007459353 16.249350614027044 16.129580048087277 16.236943693791392 16.50804494660763 16.929015036614718 17.50340424193353 18.119765118770804 18.634910963403378 18.957346317812995 18.98842441256214 18.60128130416438 17.814225324995423 16.865456848438093 16.029085867469185 15.397425483100605 14.977961950633743 14.891865985462116 15.283674793748748 16.072061278600884 16.971314344092285 17.780779109528634 18.441267076652966 18.834634892717755 18.803520613330527 18.333826406302112 17.673059812896362 17.132939669504186 16.839597164307094 16.73221897058027 16.751430040583212 16.867885696115557 17.00177210767033 17.109032676716392 17.26822266776954 17.53098085316377 17.72055660961161 17.61349090231541 17.23078786226367 16.890619539813702 16.7905199459007 16.866748995669006 17.033590475363425 17.2081662031269 17.325362523497176 17.49998736660231 18.016064283995494 18.93943452939167 19.937965594908313 20.635404677866372 20.798617648724633 20.373256109567002 19.58998304172725 18.884258594904455 18.58787632981502 18.728089896332346 18.9851699344288 18.981139615242533 18.539060611570576 17.777007092536014 17.008531170387826 16.571660622090892 16.62660251913285 16.95105973767052 17.222735649468955 17.409532206710143 17.667267341335084 18.04242584928696 18.349597027419097 18.328074220078992 18.02842549893995 17.76527897693578 17.691857728213833 17.683151314278206 17.532944874661467 17.158393042595925 16.702263594732823 16.466818169820847 16.674855568551067 17.168611461155145 17.555741378213888 17.70504945564821 17.72951189329138 17.701797953476866 17.73205535085302 17.99632634686116 18.53759545632681 19.19142964959024 19.754843637509385 20.023360428030024 19.76992349951471 19.03618976581175 18.25284559115716 17.786074502330262 17.646178163932188 17.66457282532026 17.830119935048344 18.276800715857124 18.916562010248303 19.372510658842643 19.249786324269653 18.533023142882428 17.595787269423592 16.78262863184127 16.219849078228574 15.956244172245368 15.93686099028447 16.01592515661034 16.15075837179466 16.324546290649913 16.45427149014929 16.51364365621302 16.617069019824125 16.783278704833755 17.013754848226657 17.42634339822912 17.943598768401333 18.24312040554795 18.225257340284863 18.144062740663816 18.224583021219924 18.459695307295725 18.57096049406624 18.285300860810807 17.68092162771995 17.073004236141195 16.683740088663665 16.480967547075334 16.31996447835871 16.197624912208894 16.23718704592489 16.48027530409986 16.821220747293133 17.188700890557275 17.514127911194333 17.633772227697214 17.397186894237116 16.83926251208797 16.324214644456255 16.23408204640665 16.480312796912376 16.720177153002368 16.82667477027189 16.868818928726498 16.922664940418425 16.957370504808253 16.880891239365422 16.595345605002738 16.20549345678994 15.983390731774769 15.99430277661519 16.107266444522335 16.23863214734967 16.45175599450435 16.78536160865907 17.18549111268459 17.680267484706466 18.29157874230165 18.869560024912147 19.157584147549585 19.005371516462017 18.58273661080873 18.243904684602267 18.10077655972473 18.053780011518644 17.974068314581366 16.710102754970816 16.643867296271083 16.61139055350143 16.735048766224537 16.992128403250113 17.027849267376123 16.62781161177261 16.057170130297948 15.710413399913442 15.737076980709697 15.98597911683172 16.351129096812322 16.952832068964117 17.89143523097083 18.881651887541967 19.397790428228667 19.262453328596106 18.711852939759748 18.134198881584062 17.76854996657884 17.632511694546245 17.789598158384326 18.22779430653848 18.73925494702431 19.131031891192112 19.330537318656134 19.191767110026476 18.622362768485626 17.90887673440647 17.514510298184817 17.541047740951626 17.667513605543498 17.57505990220928 17.237950321296644 16.841433859744576 16.555208353648965 16.437541431991868 16.491118442800076 16.66312798355474 16.91494927246132 17.248539198199243 17.624904567345837 18.020802192660387 18.385303898168434 18.53609865828557 18.273242510688025 17.646170568394723 16.937905921840294 16.393047745241404 15.99550175832944 15.679176635966247 15.606622717284155 16.00112270120108 16.798009100591912 17.71054474369148 18.548016592569155 19.22616618968768 19.592354734881315 19.510503743372833 18.97881104752783 18.209896039247145 17.544306596248482 17.215005189144826 17.1857283533503 17.28740985102011 17.375066653664206 17.341181166351955 17.23193995213884 17.306776420565477 17.688172207203404 18.069751236728216 18.033498900657793 17.516578697967553 16.866828988560705 16.41032642718615 16.284177175952777 16.475741994144716 16.796497382463244 17.065869014251835 17.377643629362577 18.015170846081347 19.016021651015837 20.048640325243817 20.74193094653927 20.82585322075758 20.215456267902717 19.19605737493823 18.288578543794397 17.863813543668265 17.953207756755702 18.213318093661165 18.260812068316284 17.97760377499063 17.512586150219718 17.11156740584345 16.996730134348436 17.247254755090648 17.655946086822983 17.940098424216597 18.047631876568733 18.12022197160851 18.22013323068684 18.215576933314516 17.931780654577096 17.46662310592788 17.119168469287786 17.01078327364386 17.008507167482932 16.958771272106436 16.84809101143571 16.763442659659503 16.852485242467978 17.260286189459716 17.848870225342743 18.250906095504064 18.354232589148484 18.31222870921074 18.24311047101735 18.27496280242407 18.574689839014876 19.165147461094254 19.850412934200353 20.363076360978752 20.445982680913712 19.947726389260584 19.04910413924669 18.259691049651398 17.917041816950206 17.91742874929324 18.017242472259948 18.204034743123653 18.606841495101722 19.134874891879875 19.453880032206023 19.243937881826085 18.523316742850934 17.64619017687027 16.913038304902248 16.406142637226235 16.15547276577479 16.15562587209861 16.320134378560546 16.603289062255662 16.920283744880972 17.095467811326365 17.097223799447864 17.12829864360316 17.261725709053145 17.41632066394732 17.618937696923005 17.834613486694185 17.882716816124898 17.785932363890172 17.829558068005763 18.17616260298073 18.718168063429854 19.12874515231683 19.12020675553851 18.719978563868786 18.17280763221231 17.67764409917986 17.240696173950802 16.79956128686194 16.40468037477196 16.210791653085696 16.279105864962272 16.496122275040904 16.797031627647637 17.167454643203097 17.4747405809821 17.487169749982144 17.12018697589774 16.68253052299709 16.5584361937246 16.663132780739645 16.673318303458693 16.575616020940036 16.57062211389003 16.73104450649204 16.931460613113092 17.006828700680806 16.85324512844197 16.59259867476832 16.49105384206894 16.604816605849887 16.79287635129477 16.928602485504243 17.035414215689542 17.187747357737983 17.4312882128371 17.86366306361524 18.46669860543618 18.96331392420861 19.004002497784057 18.48933133440819 17.71586592889323 17.129503129025572 16.860243663990328 16.773795510312038 16.745955602783066 15.638208430393355 15.895183993804583 16.334094879075604 16.95957352806872 17.652017513166044 18.003318504760635 17.764630646104333 17.169005730654337 16.654395897315016 16.50015958180623 16.635870797612377 16.903738099355756 17.349275774572067 18.132386645899594 19.118347367388562 19.806361692018587 19.84541732067783 19.272721483040346 18.454897132009563 17.82007602722644 17.61185663815636 17.928618416782808 18.577611517580017 19.17003580974147 19.501605330424233 19.60632076107959 19.441760657255422 18.922646025403157 18.229720145105574 17.71745010308983 17.51290425712895 17.434557092840535 17.289221775170912 17.051532551734855 16.79099569424399 16.566641896439638 16.43382966514837 16.417716202188103 16.463571033782184 16.518099128744275 16.593428118598712 16.739135068283925 17.061111427905416 17.535232041559578 17.885477585412385 17.85249855789672 17.522366344265834 17.196707032199654 17.032824612926397 16.864932391874706 16.566251443098235 16.37382743825223 16.618725163461765 17.295450739983796 18.134720507827833 18.90637430451675 19.452417661622015 19.639446434521794 19.454657224465254 18.96404484918964 18.302776882991107 17.731620928456735 17.51775198995506 17.647635527456693 17.869476788249237 17.944800947605007 17.745922116424296 17.394735216320456 17.29518741463808 17.662696981079 18.153031478966255 18.234183481997263 17.766491284133952 17.04677516506993 16.413888753768653 16.130610946044797 16.257298641879007 16.564245207827295 16.83706872541088 17.17848275329391 17.853385342308215 18.86059450679666 19.878280073122085 20.561956266553977 20.63394273084076 19.978048739538693 18.87494373006124 17.863835723161934 17.335862837433343 17.342130624852267 17.5656980084991 17.685950855630782 17.658657901772937 17.60185383793474 17.609075350937214 17.742091450299277 18.01958778494981 18.335239174510285 18.5484882215147 18.61274932177604 18.589443349576104 18.486953263914884 18.224000158067067 17.75186478418732 17.22669384174503 16.89521829814582 16.81648871061157 16.813971535378638 16.740210279291723 16.68375605472359 16.786814705338 17.10629945199581 17.678009791018187 18.31895506378874 18.680597182827704 18.71009877974967 18.614782632506262 18.538007261228227 18.58569227706762 18.881407157281835 19.44203375281274 20.08065404304583 20.481411961456207 20.33331266944469 19.591475668352746 18.616748963581784 17.980908800719934 17.91727102096479 18.149225167544838 18.340327176059322 18.496781755864628 18.776712980663525 19.113822560188332 19.259947446359348 19.020764956987367 18.42521603365323 17.716336595302202 17.09106153209355 16.60587013944771 16.33434692548314 16.36011809737572 16.6529204349611 17.131812145108665 17.609234424850648 17.82054579770033 17.74821902963206 17.69533858385725 17.827022610067594 18.00485649924437 18.101455824287168 18.054026220254865 17.827143780111072 17.5874815920797 17.626935147936308 18.025342997921673 18.62868036211063 19.16537772317252 19.403234327550024 19.31191743705264 19.014360006043983 18.638785635960126 18.195747057883622 17.65249746922765 17.068261932006962 16.64269549856938 16.512502726175942 16.593101232598556 16.806685028329333 17.146336309578405 17.508593007483896 17.654606772213736 17.463657504733607 17.187235039009213 17.142712241371257 17.2042623554341 17.043111333332913 16.70786228815814 16.51219428239083 16.607318078213297 16.88895577774888 17.135887696640246 17.172978189338952 17.07704838014398 17.07056837357408 17.221773431627426 17.439280798009232 17.57955681065412 17.59497049882725 17.577670692544284 17.691027806937853 18.08588525222805 18.660984984742246 19.022600936088008 18.79202377130531 17.95845847733479 16.91345275652335 16.136650853160717 15.756050544204315 15.604639823996633 15.556081160594664 14.985905162177318 15.370374888459422 16.113637001158576 17.12995322910202 18.16749238742028 18.76511429651263 18.675376794395323 18.10249808765488 17.487572572980238 17.19051786572768 17.206654184026643 17.343132026489787 17.58867685210166 18.158484103123413 19.06136658052807 19.85971308881214 20.08484072205882 19.586577200867474 18.651378074917705 17.81034963942269 17.486940387240317 17.827201863675334 18.550202656309803 19.180179416524876 19.512897606738235 19.645179766360805 19.591782829695354 19.234549774438577 18.612785278188614 17.97132599298406 17.500594421048582 17.18696474985769 16.94609453347273 16.730551472436687 16.522412197921355 16.331531097237516 16.229603865854795 16.220622455671496 16.194721938450513 16.07062568576605 15.886688386629745 15.809704267489515 16.073032810707534 16.65554020553403 17.201861012743716 17.42687968983973 17.430440872941602 17.484608810306348 17.649824534129397 17.649996010082223 17.33365007026382 17.00532837062152 17.074246420975662 17.576603742849144 18.244864651774034 18.802611499338365 19.050228747962368 18.948753356659974 18.65792444148486 18.32720267550982 17.987130598009152 17.721743894254995 17.739712874755952 18.05498984334519 18.406967263906836 18.51690321064031 18.224838599312623 17.672334093539508 17.339384527400792 17.54962918391099 18.03341084314081 18.2459354938891 17.984150008255224 17.434132560948655 16.84100908924362 16.48362017730358 16.48522012257832 16.65389811841451 16.794535831815722 17.005483672487298 17.543320832891407 18.43071117128916 19.393578608519125 20.101676506576435 20.24423749066105 19.65652297106148 18.576566162298842 17.534872773399037 16.96642171031112 16.972259074566946 17.27598089047727 17.58217421473478 17.834976398537215 18.082037366787524 18.313485642187974 18.498274381822437 18.62495006624415 18.698809287876447 18.759050364891802 18.799871852168135 18.79079273112808 18.6482890766678 18.302221288586814 17.802224340154023 17.35036676918295 17.13223615426678 17.139392784775147 17.13346972523754 16.94191751153894 16.757025778572892 16.84303546384801 17.236499078299207 17.877113113591637 18.514711733275362 18.823303493435674 18.816366010709945 18.716503090740776 18.63473612594642 18.619326464071243 18.767162133780225 19.156059037798762 19.66593009396284 19.94815617270294 19.635397517663073 18.774523065569518 17.875720802434817 17.52145426618822 17.7959670921981 18.25515847233681 18.499239146562548 18.581805683234688 18.71239442530931 18.85534423232832 18.859054222628433 18.661555871912427 18.262493790024696 17.72749918088377 17.149845331237945 16.621662813198594 16.298837876172996 16.334854468039985 16.73097330082669 17.37859742396189 18.00943177860507 18.28832992490527 18.192464005800954 18.088320777776538 18.230500632826562 18.468143662781053 18.54251111897039 18.332451580549236 17.899149007540416 17.51154661672299 17.43872367215348 17.688357747382945 18.12676249145288 18.60644149006318 18.99329555734297 19.218010232760815 19.27457209075949 19.18186819943423 18.919353981850616 18.4587899361691 17.859367325525433 17.366442655476494 17.18830337781091 17.25007545208186 17.410957055522218 17.63020662857052 17.855716961646838 17.93839980623767 17.813089355301408 17.68533165125505 17.76323616412478 17.86283825770832 17.645154995766266 17.143347898009637 16.699791310965853 16.570040886801355 16.77338604499042 17.097857605654283 17.29199778965263 17.36084284686892 17.466127924473984 17.687540966896957 17.984478615298993 18.194172983714633 18.18423349945371 18.042517045743363 18.025427782599284 18.318091540726048 18.76473490766492 18.943597547084256 18.52498274739498 17.564331164413478 16.448388333351343 15.615801629419002 15.20084310938551 15.023128780939459 14.920975930105605 15.039722222108145 15.321913571918982 16.077389062640517 17.203573903171606 18.356801436109475 19.05322627148135 19.062415974956345 18.538820181646752 17.869659707644118 17.454524738668397 17.372609412873835 17.42270153362117 17.514433106604315 17.852393888159725 18.556920680390867 19.32268149438 19.678323059734655 19.33785501685191 18.445437667065715 17.509752489158863 17.05709642450394 17.304661210343323 18.001859123364603 18.68372814039961 19.1231556348663 19.390630955841207 19.50977557069322 19.349509476676147 18.846198231118027 18.137490682214 17.45800190395252 16.958100535405997 16.646135525413502 16.42470530909131 16.209869417315847 16.031568296896452 15.99384855333769 16.04256082364128 15.989616257453221 15.739021613274248 15.37036679726674 15.148813376668194 15.381053752405986 16.026656648220435 16.704636617054692 17.14737855279897 17.421843324877543 17.72707497152389 18.081347577007364 18.197090807752307 17.924041081607932 17.577679763345298 17.569602163635953 17.90959242752864 18.293062308476387 18.444360072233586 18.2426756741812 17.82373372296811 17.498074131962902 17.454699278812566 17.59609723480987 17.774342873996257 18.05110057984343 18.445480848372156 18.782204425614985 18.862636893980323 18.537881041214003 17.914105998114437 17.443357655455717 17.50842570142805 17.95982559129766 18.30446875126102 18.28717201194739 17.968234551112186 17.4784039678895 17.06758785459122 16.928098174659116 16.95671018522952 16.9723714791633 17.009257571345717 17.30659014689707 17.969497465723634 18.81613234628659 19.53803813789781 19.783318517164595 19.325656871544886 18.333137869739993 17.319250058543407 16.786614081905505 16.894846220751425 17.381786706017518 17.903016019627962 18.313353433676824 18.60491028498725 18.78423848652892 18.846277889087347 18.771301311229294 18.602988955253114 18.494271111229352 18.49948751883948 18.555623718827086 18.51355635235734 18.26350201543145 17.86225140303904 17.517427050145812 17.39664245536195 17.48685891971292 17.514192528240585 17.26748828423612 16.98788589609731 17.01553550987269 17.377379397792826 17.970832550034597 18.545683864982333 18.828643378387405 18.84854147387164 18.75899228692056 18.603086824079345 18.396079546933656 18.26882905243413 18.413496835862404 18.794743001711748 19.038350961367073 18.725265202988687 17.94094828500154 17.257054797571566 17.20046598728625 17.712877798210634 18.260561638853837 18.455316162875583 18.422007193533215 18.41853205583796 18.420542955335808 18.339547322624913 18.204926984933557 17.968200490221662 17.53415548946208 16.94879179707715 16.376931444010367 16.02658022091063 16.068166846672646 16.520247521816074 17.280589182967628 18.04146539801112 18.40590281376949 18.312073386914193 18.159365217273244 18.281243372264218 18.55217825916636 18.652155947036285 18.418142266707733 17.93550462334491 17.486684036947285 17.297246261990754 17.34051259977955 17.534914922405463 17.855280596227516 18.26620046868142 18.686572382730137 19.015555616150877 19.167385953565937 19.097252098897837 18.806484798711953 18.358755371309055 18.012218589633274 17.999890772401766 18.20699974937044 18.3665427251276 18.37791408013166 18.289861930353986 18.138213579976437 17.98348308021779 17.987429539985055 18.211901842160003 18.403879096603347 18.23728946634955 17.69996851358437 17.0824092977217 16.695591496455556 16.69217614657324 16.935997736461424 17.172298555990363 17.36382941987983 17.602445979040585 17.93911092843051 18.333468334546932 18.607343514850868 18.59869502833004 18.403963691393816 18.306671919433896 18.465033789041925 18.702671998807276 18.679154348304507 18.20107276371001 17.36211995140127 16.434416835862717 15.731500847629171 15.390969052884126 15.248126491223298 15.096760131853674 15.671505176803503 15.713022415788185 16.242400678719594 17.193742676957434 18.211961860788286 18.851841153541542 18.906630409507596 18.453938662338683 17.78482087916708 17.307726032705503 17.201701502777443 17.273222709095037 17.307937370605355 17.417841778189768 17.794384004897992 18.32048061676423 18.64514998154953 18.44039348182205 17.690701503892996 16.768219905207495 16.21453114091312 16.333550063016258 16.983569573969792 17.753324554567726 18.355710531628436 18.77227313829387 19.022749224184146 19.01593358612253 18.667273993532405 18.031695076762468 17.326364493462833 16.793779016517966 16.496965294689765 16.27686230059892 16.00889929246558 15.787409848562842 15.7500379068477 15.785775760310933 15.67690257959451 15.372659438270986 15.000638396827618 14.831706106525406 15.12321976126459 15.785640433029215 16.491204655122406 17.05674641763608 17.498306616913332 17.92071664009348 18.355281926670802 18.579655802113248 18.44110396417375 18.192538410890425 18.187843075645066 18.376855984870854 18.410311033438216 18.067391576419475 17.40546640068416 16.758154816821403 16.51063102620432 16.8163519570625 17.447905512604734 18.04878943836978 18.502888877721993 18.794981297333155 18.89103387227484 18.786023478523866 18.424507917631942 17.86617090284591 17.45174667103484 17.52637578347631 18.011273150606087 18.474117662885405 18.633664063867947 18.452812154874543 17.987969450419445 17.478876970364134 17.20091392070207 17.14639163472759 17.12189058895949 17.063295892910546 17.175736857072746 17.638776275670505 18.357644636893124 19.0677954237025 19.417224284729617 19.119834867102362 18.24102302301205 17.26647094154976 16.774394286628876 16.978255176251793 17.610734424970413 18.257149747523787 18.67700232997143 18.829186658661857 18.791310968614447 18.653166429152904 18.414590070754134 18.09278623747803 17.851930100251487 17.79004996185434 17.87942970421144 17.9803853339805 17.93256767823117 17.698276722158184 17.420484245544646 17.300435149676115 17.41712398803273 17.52249714091127 17.3642750999817 17.15044143215339 17.197793365226374 17.49881863692573 17.968088193146787 18.44723281028092 18.738341611182417 18.808624553926222 18.67846025045235 18.351246934376686 17.887977345718145 17.502029971657947 17.477445994512962 17.8213692631064 18.139054337833745 17.982084088951442 17.415776529709508 16.980759358242523 17.117511286724312 17.69062007661222 18.1793924788527 18.260675135487105 18.113395129101004 18.020020947906364 17.950870717298706 17.831623705354637 17.720023491553352 17.538149475748842 17.123713817584417 16.538649078808128 15.997593646886132 15.693548546230627 15.771881053443142 16.261764712248265 17.076698775266507 17.896942602701824 18.28830714839092 18.151641676873112 17.914191796556416 17.978433624788465 18.255425265788883 18.40916580938965 18.259762532870813 17.871341142543052 17.47476354651284 17.246418752643052 17.15621499359127 17.16188583542602 17.313999536718043 17.645976977980958 18.08417963283103 18.49213068907223 18.73677552904005 18.78206396763348 18.667214600150707 18.436249802425035 18.3242798610888 18.567277487308562 18.9945622301001 19.186138561063434 18.961089209123568 18.48289492731341 18.00798006055346 17.761056244401345 17.874773390579133 18.24661356553404 18.53728168587629 18.459305274697698 17.98978595909565 17.347406469934448 16.823143093334114 16.63103459828274 16.73431152386303 16.95389753824247 17.24090508322274 17.598926836801382 18.011593438663326 18.416223836484168 18.666886536620215 18.66213668444736 18.51925442568279 18.447681818272034 18.48978842759513 18.469215707603855 18.220021408963536 17.76130817204204 17.221597205091708 16.69254971118623 16.291946618547623 16.125832369493207 16.065701424445688 15.887004734645929 16.56370279228639 16