# vtk DataFile Version 2.0
Really cool data
ASCII
DATASET STRUCTURED_POINTS
DIMENSIONS 200 200 1
ORIGIN 0 0 0
SPACING 1 1 1
POINT_DATA 40000
SCALARS temperature double 1
LOOKUP_TABLE default
18.184707729654228 17.96033703933703 17.70579883765099 17.42932731417532 17.1430730183201 16.86470761870226 16.617775054403268 16.42914005709058 16.323245341176023 16.314846844101663 16.403009986944607 16.56878038446223 16.77762958858805 16.986387856119368 17.153217894470995 17.248140729062754 17.260918002715492 17.20342565518618 17.10540764105245 17.005020189766736 16.9375089516651 16.92573404530307 16.975168705599714 17.074271720629543 17.19952277793322 17.323205661234475 17.421310452559933 17.478932040173742 17.49155505852749 17.46248639644808 17.398547743245548 17.306803070782568 17.194056973693677 17.06880886809181 16.943681543539807 16.836063055549428 16.765766545429464 16.750121895354347 16.79821968964442 16.90655615833837 17.057959485113997 17.22455560596438 17.374061278543973 17.477474511952927 17.515791208638976 17.483864943528193 17.390661616241694 17.256393153455555 17.10778794941365 16.972793847988015 16.875534191759527 16.831946298984988 16.84664824043866 16.911962397954877 17.00995613735161 17.117428408054504 17.212404110146267 17.279849381521544 17.314635194888726 17.321073293727405 17.309829711504253 17.293880720898546 17.285074711876437 17.29203986119775 17.319252864072936 17.366673504251967 17.429643672210698 17.49935576654531 17.564452376683157 17.613875952613014 17.6402326784749 17.642355726247096 17.625951252063132 17.602100644871783 17.584384648269737 17.585847394279188 17.61670841750138 17.683005424349904 17.785833763716553 17.92091641575912 18.078705445214915 18.245520987711313 18.40596070929201 18.546068963674553 18.65608537420862 18.73154485562694 18.772226527625634 18.779599377247642 18.754327985584965 18.695472113575295 18.602074436693922 18.476359394764216 18.326656709916314 18.16814166187078 18.020594881289735 17.90394876701093 17.83346054049273 17.816349926229577 17.850815424020173 17.92721820088962 18.030574057748403 18.14344486934488 18.248537638552463 18.330547423794393 18.377109282177177 18.379239781297038 18.332009719639185 18.235860218142147 18.097975202049327 17.93233030691827 17.75742977396096 17.592283564421844 17.45262501233162 17.34937156728571 17.289738167120877 17.279467176433 17.323865055075654 17.42626052184265 17.584371442729662 17.78663092396875 18.010929938977114 18.22736387278487 18.40482749707529 18.519385225118505 18.561132343640704 18.53654059737379 18.465166045116554 18.37217720259193 18.279936603538683 18.20184421035409 18.140105471857396 18.087233758543633 18.029993239233054 17.954300586302647 17.84984243466663 17.713406954267736 17.550174670492837 17.372662819874957 17.197697459329902 17.04247684594864 16.921166131794603 16.843265573667942 16.81416189804992 16.83709111596249 16.914842075742087 17.049570433866155 17.240245945195536 17.47893086094362 17.74820658605776 18.021792751244167 18.26879181498508 18.460036199676754 18.573986270245857 18.600150020307083 18.53956166064379 18.403244170478196 18.20987897739489 17.98324259180691 17.749266420651143 17.532594401307257 17.35315089142431 17.223714997709823 17.149217059334617 17.127600745068307 17.15139789930145 17.20923506386949 17.287175734008915 17.370373090691007 17.445369341950915 17.502614204804896 17.538073531299222 17.55286803642806 17.550848895489104 17.535267332414943 17.506310502415317 17.460769104941505 17.39384031913158 17.30197049196413 17.185395039845986 17.04957057216836 16.905384206690655 16.76833257254135 16.65679971610118 16.589521696827127 16.582553586726622 16.64637057273203 16.783778967046924 16.989001177787316 17.2479334493994 17.539486868077258 17.838064950506794 18.117203480756398 18.353897621098284 18.532398401665045 18.645967634776007 18.695775639174492 18.68756832495959 18.627930095963123 18.52198912650912 18.3732339200408 17.890759809527168 17.698933926927452 17.49150549584981 17.271630467542842 17.045346363081745 16.824220451369847 16.626794887870382 16.47689766552081 16.39828157747013 16.40715537612791 16.50548519125332 16.67773574460352 16.89245295060971 17.10862338618903 17.285448213274208 17.392996440758495 17.420412419497616 17.37864771600366 17.296450899793047 17.21093593991562 17.15610370050402 17.153196232659884 17.20572753567382 17.300216382711888 17.411829802051596 17.512752594964198 17.58034694156934 17.602321686678568 17.57739154014723 17.511973220373818 17.41534285687917 17.29618482474171 17.162190494909506 17.022168200513814 16.88850396008647 16.77772840688645 16.70819004463105 16.69543937564758 16.74702218298305 16.858648386021112 17.013257040164646 17.183585225671393 17.337745261025127 17.44634613867861 17.489186871377143 17.45969702820692 17.366060965697848 17.229027178227042 17.07728867743266 16.94164682652535 16.84899440344723 16.816939667402345 16.85000860184057 16.938584232319357 17.06143546838887 17.191553875541963 17.303566242852682 17.38018129222157 17.415542234561645 17.414749802122376 17.390383678539354 17.357802420189145 17.33100403490893 17.320059841615613 17.330131152385217 17.361443359809343 17.409635393210838 17.466429881725812 17.521024450008543 17.56251271311645 17.583004937300192 17.58042058497036 17.55976153042544 17.53226516522093 17.512820849609064 17.516726799560516 17.55680943116948 17.641286642896855 17.77217851069814 17.944100469995774 18.143844850079617 18.35161615524769 18.544482586172492 18.701501862607323 18.80875430766838 18.862088456275732 18.8662346167357 18.830734326857073 18.76486142931554 18.67428302791869 18.56117189760609 18.427402470935036 18.278621080655046 18.126517604973333 17.98776456878368 17.880030668531724 17.816990538188755 17.80452298497409 17.83939599293191 17.91046374858182 18.001538374291204 18.09486475931464 18.174244453107846 18.227091978304998 18.2451431347074 18.22421423623487 18.163931292902802 18.068112131022072 17.945476309066247 17.809456388953535 17.676117541978396 17.560605947266804 17.47396329629449 17.42220640739701 17.408048463700005 17.433692622649573 17.502287293573147 17.616515660946767 17.77474070743362 17.966868209166527 18.172644946897485 18.364216811461173 18.51282203845511 18.59733556220389 18.61108779872982 18.56380581424909 18.477662382367388 18.37915683087867 18.290294227881258 18.222363945530986 18.173977984889024 18.133179922741512 18.08233451573124 18.004202249882518 17.887627998737244 17.731384948315508 17.545084012773543 17.346867542589507 17.158680436362232 17.00079569655673 16.887546237336085 16.825709606374264 16.81583444161978 16.855419336317716 16.941920279176703 17.073675304200798 17.24809702395306 17.458257595235793 17.690179183993138 17.922910048266406 18.13188535779182 18.294159770644647 18.39313287080132 18.42096782949255 18.378481728623143 18.27361343446098 18.119740819433726 17.934282619658163 17.737156577869012 17.548595869131606 17.386486263320453 17.26400743001623 17.188302170495565 17.160266354673002 17.175025576252494 17.22274193070073 17.289889631843252 17.36140043309361 17.423674332529163 17.46761035459973 17.490264582830825 17.494104775566203 17.484058222161238 17.463870242821827 17.433737842874677 17.39037748767299 17.329205552752228 17.24723393702584 17.145275906789678 17.028857272083496 16.908015038245182 16.796378053301506 16.709692595472298 16.66379130862443 16.67217149425233 16.743627294006085 16.880411888479383 17.077164292887506 17.32064840544954 17.59047077673932 17.861179100577353 18.106006694372645 18.30176706760356 18.433404834291217 18.496317126153155 18.495354663658926 18.441072931328247 18.34520944200713 18.21747844198119 18.064570836038982 17.58755009724172 17.44384026827701 17.29915445113008 17.150440364681632 16.9964944992773 16.841797067561654 16.699194136031156 16.589182148184214 16.53498528583877 16.554870192815518 16.654666695881243 16.823426448613827 17.033938777993093 17.248295656387814 17.427286465932575 17.541118831530955 17.57806178055209 17.547784210934612 17.477844103288778 17.404416170397894 17.360600647830395 17.36641382790938 17.423644215696175 17.516818535375226 17.619421854972234 17.702888055475196 17.74510291993108 17.735498778625523 17.675313372324634 17.573778596665697 17.442848389035834 17.293452022702247 17.1348766625587 16.97667245451681 16.83093653157706 16.712859544111584 16.638697546216427 16.6218237166418 16.668376470450898 16.77408327698279 16.923394253787038 17.091416582091245 17.248433123802595 17.366074179746683 17.423633922714707 17.412832006736092 17.33971113706283 17.223245855065013 17.091190110121882 16.974237469307614 16.899623472571076 16.885233219679673 16.935415316539203 17.039828467285343 17.17617613924242 17.31640593615871 17.434451794038583 17.512846775211464 17.546051842359205 17.539812329374254 17.50743617419446 17.46484142285778 17.426245312610384 17.401621036896103 17.39599480269288 17.40985917443899 17.439838160396747 17.479243669121445 17.518860587192528 17.54858542485397 17.560115470935703 17.550013707417765 17.521852682931375 17.486336302325647 17.45924185013775 17.458019760651407 17.49821021471897 17.590380778831232 17.737657747869125 17.9338289667011 18.162551090008176 18.398749683852355 18.613013707648072 18.77843678453918 18.877678058831297 18.907221330526315 18.876704306560146 18.80350639202331 18.705249060714863 18.59395193323083 18.474543710927627 18.347848032931136 18.215655066413984 18.08456816429466 17.9663930978638 17.8750386578756 17.82177315806689 17.8112226111177 17.839707985055174 17.89620268483744 17.965192082390086 18.030321527440503 18.07772203460373 18.09811686583434 18.08731170188883 18.045455138388466 17.9760746119942 17.885724782747957 17.78410659663766 17.683592884655997 17.597249530521704 17.535738247197244 17.50480973423465 17.505134158178745 17.534728245199506 17.592326401937175 17.679200491628805 17.79781616559186 17.94772838392408 18.120994292618565 18.300043158333246 18.46001224150425 18.57541449326031 18.62864000389535 18.616472994197995 18.5514310869038 18.457141975420402 18.359820413218596 18.27950916840277 18.224323617019884 18.18914515822342 18.15840091733948 18.111594095684772 18.029985314088023 17.902758306578978 17.731004255368113 17.528245116322697 17.31720465376638 17.123849438079493 16.97075629311486 16.87211849484572 16.8320391870023 16.846398359308786 16.907035495000475 17.005964736637402 17.13744001227678 17.29700439442678 17.47852214610518 17.671460390925606 17.86049888274401 18.02799876255934 18.15801702526275 18.23969366850247 18.26850408740131 18.245445947370232 18.175453675063377 18.06633864700843 17.92855607179639 17.775109392730787 17.62075513332912 17.480320504110914 17.36665159150953 17.288841843915307 17.251015317219164 17.251626906817766 17.283371737836646 17.334131085496807 17.389347355771054 17.435549903001842 17.4638309217317 17.47165619961865 17.462001675507793 17.440223742237926 17.410406396753068 17.37321129677716 17.32622933361124 17.26624320529173 17.191833411799742 17.104991733999483 17.011404014194635 16.919868710812523 16.841385896011282 16.7880476335461 16.77160322832045 16.801723662632664 16.884264619304048 17.019848167707515 17.20287005314698 17.420964040515646 17.65523437726119 17.881911393118205 18.075918848854357 18.21591974411425 18.289216675583123 18.294382067565188 18.240315289638556 18.142209600597482 18.01645582715444 17.876709624556693 17.732162383669838 17.315640631541143 17.22883433703343 17.154154670180112 17.08199576731599 17.003588833762386 16.916050395451336 16.826349237730735 16.751607800946864 16.71464602795103 16.73609455100746 16.82613979874268 16.9790870472206 17.17275524204186 17.373132425914594 17.543233016807626 17.653753690679995 17.692130967543108 17.666609347870807 17.603437160547642 17.537924966960826 17.50258179379166 17.5166396053448 17.580552680495895 17.67701303171088 17.777613153113645 17.85240169379674 17.87878164553935 17.84671385521256 17.75886845532425 17.62660602760847 17.464432936895353 17.285873054982087 17.102341445929202 16.92451198749427 16.76424304105407 16.63516355395809 16.55118880235653 16.52352300447815 16.557347306196455 16.649328474818255 16.78671793296388 16.948468197468156 17.10846501931575 17.240486112224122 17.323851745713046 17.34824007802245 17.31620409771638 17.24263961997601 17.151423243987278 17.070112490639307 17.02380045667593 17.029260024777148 17.090698041366387 17.198535063941907 17.332064224783128 17.465477437782987 17.575246576680406 17.64620023360555 17.674292244086168 17.66558729102891 17.632505722705584 17.589181018782018 17.54769518857001 17.516182126813543 17.498744081888603 17.496299865373203 17.50728940091023 17.52771098792058 17.550906931168292 17.568136174300797 17.57070524257549 17.553344435988137 17.51739989378464 17.47217290361459 17.433612570375136 17.420881240136904 17.452077427430012 17.540208385076568 17.689843895604525 17.894606890286383 18.1360995233766 18.385453999728558 18.60846021838966 18.773745537280902 18.861469889423915 18.868875860595907 18.80988815011939 18.708648021750438 18.589950655081374 18.47114057262276 18.35905837150728 18.252689027342523 18.149083443352072 18.048751596076695 17.95765916792783 17.885301676032295 17.84048340728486 17.827239102977842 17.842727300442593 17.87766359451671 17.918794628116387 17.952372036257128 17.967448325088732 17.957967010805323 17.92313814383169 17.866431754490485 17.79419625580764 17.71479474940638 17.638235563698267 17.575398505215425 17.53609289635522 17.526374683017647 17.546732027647543 17.592701492514234 17.65800092145803 17.738419792742647 17.833917725945827 17.947289952375623 18.07981506541076 18.22625998979933 18.372349243632293 18.496837694418183 18.578023426414344 18.602015488295812 18.568764689497122 18.492712361745404 18.397580463772 18.307732609732355 18.239912703352058 18.198404659819815 18.174668699046084 18.150773903684126 18.10520437046272 18.019539269620253 17.884471959524998 17.70355239180199 17.493340971564663 17.27964499707772 17.0908925220752 16.950825452380148 16.873007716824336 16.858973523605158 16.9004039498701 16.984050930608 17.096966333382074 17.229606902341335 17.3757106186193 17.5297931391661 17.684478709116416 17.829739495311255 17.954589288487444 18.049990584365325 18.11098499612344 18.13681661223575 18.129389382698378 18.091514692394373 18.02626927207941 17.937677054355678 17.83185986423522 17.7175750652507 17.60563735818809 17.507431351430178 17.432993275315642 17.389020576672486 17.37710806492325 17.39273849597695 17.42576565128456 17.462814984795394 17.491101115110816 17.50216623573663 17.49376550537022 17.468955132459914 17.432990802408924 17.389925276895838 17.34087696143986 17.28472090906905 17.22033302475323 17.148710953149184 17.073787378179617 17.001922192688276 16.94084531963493 16.898722841537634 16.883434603455687 16.901798335785603 16.958612498966367 17.055673998114163 17.19094830450605 17.357874956704944 17.544788408729616 17.73482880720467 17.907155914734787 18.040125653646793 18.116092728224288 18.126207259308867 18.07300308905635 17.969387197287944 17.834452718238417 17.68811294189046 17.54677721623226 17.42113250395586 17.11135706561256 17.08158456851724 17.073784147279035 17.072502778597645 17.06218352984642 17.03326585684908 16.987321973875737 16.93831465138839 16.9086164834215 16.92100990583126 16.989813305343834 17.11452904185812 17.278248885463412 17.45141060731499 17.599983141299155 17.69583286980366 17.725997827493117 17.697424057054484 17.634972921406398 17.573012412585776 17.543559342212255 17.565392929049565 17.638098542300085 17.742920195737174 17.849624968033513 17.926451763345145 17.949382740892336 17.907618970385393 17.803932463303415 17.650774183673004 17.464668995788024 17.261702447127096 17.055694150715542 16.858782933030053 16.68284550550824 16.54013488581465 16.442462718134973 16.399272537841576 16.415400066972097 16.489209076656014 16.61156781185097 16.76608481178112 16.931013943588386 17.08292255506181 17.201507305133145 17.27421901580715 17.299181325528057 17.285462730182253 17.250701063015317 17.21677854372254 17.204492758376812 17.22827310842571 17.292236102747232 17.388987108821304 17.501983315875894 17.61088097937596 17.697852097022075 17.7523832152744 17.772916513619172 17.76527435191922 17.739151027744747 17.70444386948014 17.668829882446865 17.63713791212806 17.61212621505224 17.595607640016688 17.58878845200624 17.59134940479492 17.59991962893978 17.60743591980865 17.60468894995062 17.58405172658261 17.543811780317284 17.490875775791874 17.440400900026855 17.41250678782801 17.427432983926806 17.50061821887948 17.638526740169393 17.835579259519797 18.072817895712202 18.319507532912148 18.538705423385377 18.69632604241378 18.771005482286192 18.760668227094023 18.682446183119257 18.565509834539228 18.43992593866049 18.32669805357103 18.233342944023438 18.15618735421123 18.08703102961902 18.02001602898614 17.9552637015221 17.898225478968524 17.85606183202368 17.833449735175968 17.829849689841453 17.83913015326159 17.851355414543114 17.855857198700047 17.84440440755906 17.813331727503858 17.76398636374368 17.701718052904173 17.634348896920944 17.571003118998572 17.52135228693022 17.494548867436833 17.497271794672077 17.531396067831103 17.592811689089693 17.672753033732057 17.761533037488586 17.852828695880714 17.9459605360827 18.044541626576454 18.151929611264126 18.265907226155363 18.375795207861863 18.464218012396955 18.513334329508943 18.512717997112542 18.464805785899223 18.38488217130511 18.295456602555454 18.21780171625665 18.16453102298862 18.13596509654399 18.12084669874689 18.10032299059186 18.05366450557859 17.96440213274392 17.825660140869036 17.64333447709727 17.435914046663253 17.23056522067633 17.0564013956707 16.93701510948663 16.884774836231188 16.89883622820824 16.967425972842026 17.073216324966623 17.199291308987824 17.333076425648283 17.466894599640714 17.595846037372027 17.71518664588526 17.8192942263795 17.902787994901356 17.962606111147753 17.999175574229454 18.015640284098478 18.015674675624737 18.00144191648085 17.97304174206894 17.92966042133106 17.871547807033362 17.801636590547577 17.72605875307736 17.65343464485197 17.593153126824568 17.55297539942112 17.536504749526554 17.54142936499294 17.55956813730075 17.579187904716015 17.588902267813285 17.58141609602146 17.555258678017456 17.513703821256723 17.46172701929853 17.403011212595487 17.33883824130259 17.26928059969966 17.19549541404799 17.121335630580273 17.05327248170885 16.998968392241334 16.965603677095135 16.958798452041425 16.982204874479308 17.037379493299618 17.123648560861284 17.237968282725767 17.374818207441802 17.525996814319857 17.68023222065437 17.822978019963045 17.93725754786127 18.006295891309097 18.017695485695878 17.967629060718906 17.862963442751248 17.720013840587715 17.56035835617626 17.40560571336815 17.27316106556032 17.173903142382382 17.000212514820408 17.019568229860024 17.06588345660522 17.119547672975028 17.16008875863845 17.172959839806577 17.155533310921538 17.119122787604596 17.085457634057985 17.07873723260867 17.116454625559136 17.202504120019697 17.324908039511325 17.458807211764825 17.573871453001917 17.644076919378303 17.656834921196054 17.618145163212386 17.551395282811416 17.489696002787184 17.46434298382618 17.493755415978427 17.577090359698268 17.6947344629767 17.815049405128143 17.90442548803776 17.936800802261146 17.899497453630534 17.794035280741888 17.632690898847557 17.433092688413872 17.21343509453643 16.989913723765248 16.776409391994672 16.58528694462508 16.428020160954173 16.31499804670841 16.254597660058167 16.251899266150165 16.30733336686257 16.415502853001747 16.564635301649005 16.737337477882644 16.913103062339882 17.072260799593263 17.200195682567603 17.290380535057977 17.345252039051854 17.374837458188857 17.39366251507507 17.416664709949053 17.45494512056669 17.512486524903665 17.5851253841148 17.66248813091572 17.73224764841099 17.784760805721234 17.815934598467475 17.827261683021444 17.823575732307198 17.810122571362292 17.79052358957277 17.766409959357492 17.738539861309263 17.708500245559495 17.679797491285104 17.65735711856982 17.645261432885164 17.643747482465578 17.647382295368725 17.64611721133808 17.62941867491691 17.59174249342767 17.536629454775795 17.47738819546381 17.434146974761656 17.428655749749787 17.47863654831145 17.59288040701023 17.767657087430713 17.985086118195678 18.214635016274634 18.418807573142242 18.562624276148366 18.624171481718008 18.601878296284198 18.514772878160436 18.39495841940535 18.275426758674758 18.178758464183574 18.11166350919079 18.06704122948869 18.031343626609342 17.992819454901312 17.94668845746879 17.895664804872723 17.846801303564483 17.8069970933259 17.779413300746793 17.76206272130753 17.748734245647213 17.731577235936665 17.70417831154584 17.663877611505036 17.61251909030709 17.555697650716628 17.501311795087187 17.458250115400734 17.435335768257215 17.4399852656404 17.476211609242807 17.542577927800547 17.631538254232034 17.731319525265192 17.83006227652745 17.92031900986588 18.001406691101675 18.07804431337703 18.155711400635337 18.23513535712609 18.309125815728308 18.364011245309488 18.385486285107717 18.366004602386916 18.309629721569383 18.231471203995305 18.151866093331552 18.088337246015417 18.04920151848627 18.031234399356716 18.02143466708391 18.00139278219198 17.95262469466337 17.861775563819677 17.724890394804955 17.549809286537624 17.355704810051197 17.169340172017513 17.018729646376503 16.925998690180105 16.90178898332876 16.943199475874508 17.036008666415672 17.160184981960175 17.29623876424457 17.42967109309221 17.551988248132616 17.658838303141643 17.74741236466559 17.8152343147687 17.860943013667026 17.88590556160237 17.89485435754118 17.894593227987233 17.89135499328774 17.88838154903359 17.885094342212124 17.8781657178715 17.863761625161267 17.83983383061306 17.80758003454901 17.771633959786502 17.738883460880768 17.716115068681464 17.70715063169239 17.71066223013257 17.719928795685032 17.725036433421998 17.716675006006728 17.689616284881218 17.644012552818676 17.583936239604945 17.514306632317314 17.438341978371668 17.357196858851054 17.27180433140842 17.185354016053626 17.10449298676375 17.038409001422057 16.996473181505635 16.985872322574327 17.010261047135227 17.069535120375747 17.16024619682063 17.27622940827226 17.409300649289055 17.549939329750217 17.6877320170653 17.811413580584478 17.90879925412418 17.967393770481685 17.976377506218252 17.929792449995368 17.82962116133225 17.687000705737805 17.52056376085759 17.35242772356892 17.203549226417373 17.090138068152033 17.02170921719109 16.991538535804814 17.046944536678527 17.128393377397163 17.21438726349191 17.28215876823739 17.314628176332633 17.30677050647643 17.268075757822974 17.219408598670046 17.18532729563567 17.185032135746376 17.22544406856247 17.298689858902762 17.38455167695347 17.457041395193496 17.493262432470484 17.48193202739184 17.428560022780513 17.354907068804152 17.292252782739478 17.270580793560697 17.30773303353512 17.402759721236542 17.53591388259942 17.674930333401544 17.78480849475463 17.837339667244976 17.817273638243144 17.72375209844072 17.56758715698522 17.366343312979843 17.139508052271296 16.905314814125727 16.679541972448067 16.47561644880654 16.30508196746461 16.177833079560788 16.10195419989869 16.08316377126474 16.123838390404163 16.221727133933868 16.368870401305468 16.5515666764105 16.75201901083804 16.95149063858003 17.133932220867116 17.28877436791517 17.412075191476408 17.50599046154626 17.576987585113073 17.633265568487985 17.681894421284905 17.72651348845671 17.76664560691513 17.799161242249532 17.821172566817115 17.832564432374987 17.83648718296639 17.83750670426099 17.838705706200237 17.83966492405559 17.836578959369398 17.82442749604284 17.80005321656877 17.764646186706585 17.724395186048902 17.688708530235576 17.666357402019056 17.661019759610248 17.668471884831906 17.677343565482783 17.67370190210566 17.64758295977908 17.598378563307687 17.536580689152206 17.481329259302292 17.455098744918345 17.47754539189927 17.560021817587018 17.701519522655623 17.886707492675036 18.08717426738024 18.266933598355884 18.39188102451169 18.440551272977675 18.41176437366948 18.325171480762325 18.213666639917257 18.110686610703915 18.03815092713261 18.00041947043123 17.986349178840946 17.977375297046375 17.956985678510275 17.917183669420456 17.859879718581684 17.793887843569742 17.729862188423336 17.6756706910153 17.633853379775278 17.601671337649588 17.57326245696979 17.542747053628943 17.506908605187082 17.466456607695417 17.425734010168767 17.391514555031314 17.37165270604688 17.373788344434292 17.403761343658633 17.463573016249534 17.54957466384403 17.65220481556533 17.758215765014203 17.854963867194368 17.934886719172994 17.997796464630827 18.049518705294716 18.09729437291803 18.144257077974856 18.18612543353964 18.21234696720413 18.211518669939412 18.178249442826885 18.11745742045023 18.043408841621137 17.97390072247251 17.9227800110984 17.89459859038234 17.883474278838204 17.875739579688045 17.854514423441206 17.804466663111057 17.715884310987647 17.58770022468307 17.429001626775158 17.258337794881513 17.10039735477134 16.98045477583249 16.917990203207818 16.921527713089613 16.986611078301515 17.097816004105656 17.23405479865802 17.374901180117202 17.505196125355567 17.61628028716252 17.704276956484023 17.767516179130837 17.805253432005156 17.818344571024006 17.810758927162244 17.790134769052173 17.766386274984477 17.74885420409428 17.74347644696919 17.751353891745435 17.769206089647614 17.791285445840526 17.81185500676248 17.82733675980311 17.83743468466395 17.84478555248487 17.853105212053215 17.864480069489527 17.877132765059592 17.885073199275855 17.880160184892212 17.855624275320324 17.809044083751154 17.742988278908626 17.663011299147477 17.574453584726424 17.480295834532793 17.38153169271423 17.279681999605437 17.179527652685927 17.090031356290286 17.022752223373583 16.988711678553358 16.995404544641175 17.04514192503864 17.134866784170427 17.256918632658916 17.400232884870697 17.551740706108507 17.697812181760074 17.8254568149955 17.923027629449894 17.980561620115054 17.990327468022894 17.948116250775477 17.855137097512547 17.71953768250913 17.556317219232273 17.38509902526194 17.226448221229262 17.09821814573494 17.013128394022143 16.977671484120524 17.075916904418094 17.15309268314582 17.249413221525007 17.343752722118573 17.413822945839772 17.442743527975757 17.425205330442857 17.36994677763378 17.29686682962541 17.229805838194416 17.188069596854064 17.180028174877716 17.200834297849532 17.234595473074396 17.260091256057915 17.25842344191123 17.220466568780928 17.15163089568008 17.071772554242298 17.009536913336238 16.992690875264046 17.037973274121153 17.144465132453995 17.293046724588784 17.451897763551198 17.58559721502414 17.664320626589028 17.670170061336837 17.59924627296829 17.459820843635555 17.268182492683806 17.044074337729988 16.80716322637116 16.575083898409247 16.362811905222653 16.18278698589185 16.04528451645994 15.958699876976128 15.929457890101197 15.961305691785503 16.05404204616408 16.202253113712434 16.394952043102272 16.616740471316135 16.85029360798581 17.079214627387564 17.290207446275456 17.474091564893474 17.625844388489828 17.744052347820908 17.829949050560188 17.886156095592145 17.915582122672248 17.921223102907348 17.90717390410129 17.880059376180327 17.849295695027134 17.825075009147834 17.814608750536536 17.81870507505726 17.83090513304632 17.84000442658477 17.834888242874165 17.809478696196482 17.765700724464057 17.713308927730925 17.66654545759026 17.63864674782468 17.63613853382873 17.655357445189 17.68313358378361 17.701842872959784 17.696826229137837 17.662858051264447 17.606860511171913 17.546040388865425 17.502689013469386 17.497782427423648 17.545108106398423 17.64684083279328 17.791255917830668 17.953616622947784 18.10125967431542 18.20264129716606 18.237836828160727 18.206166704427723 18.1268932770684 18.031772502480194 17.952336278685596 17.907691986736427 17.898438954334058 17.909040388509357 17.916662774827923 17.901665681798278 17.854957108536198 17.779781310487554 17.688441889524743 17.5963937381809 17.516500497827547 17.4554559241793 17.41313890962776 17.384530041612077 17.363004266582166 17.34350192035602 17.324407503951413 17.307800470568214 17.298557924357443 17.30301275437029 17.327463239903977 17.376396966697406 17.450456906824513 17.54486187587997 17.649442066063596 17.75100052726193 17.837468241307924 17.902083839439683 17.945456594954052 17.974202065618705 17.99654104809169 18.017002761835847 18.033189101370418 18.036745498602386 18.01838207254985 17.974210538959763 17.9095479088705 17.837686414910575 17.77420181922155 17.73004979176848 17.707127737677958 17.698085172963506 17.689609668966597 17.6670404803324 17.618486769692478 17.537751297082664 17.426103570217418 17.292911987345466 17.154788004025527 17.032856175639047 16.94827781416837 16.916980650310208 16.94522111284759 17.027698854198857 17.149209656686732 17.2893818988378 17.42853095838026 17.552051390432723 17.651661349280225 17.723788922982074 17.767081061648092 17.78117407763122 17.767452031933942 17.730747263418603 17.680188375590376 17.628086014630238 17.587131450279507 17.56718352318878 17.57299633884871 17.60362219423024 17.653474031464444 17.71451952815638 17.77882869947181 17.840601082163975 17.896884716540107 17.946641290030513 17.988643617339548 18.019522441201783 18.033428752976935 18.023871604328992 17.986780710875234 17.92281739228266 17.83729151314635 17.73762442304552 17.630035455482517 17.517737014655548 17.4018932967322 17.28463344566779 17.171947454790207 17.074398996583145 17.00510501516225 16.976136883894686 16.99517253113528 17.063635973491927 17.17646689413824 17.322991716298183 17.48838685573255 17.655515363047726 17.80699534523859 17.927195677173014 18.00379159051391 18.02876050783287 17.999045858486014 17.91715915769214 17.791606585179093 17.63657114269382 17.470279939783296 17.312111442497542 17.179332565894487 17.08468395408516 17.035460261938304 17.033635671880116 17.226673997477995 17.313708349481495 17.4