# vtk DataFile Version 2.0
Really cool data
ASCII
DATASET STRUCTURED_POINTS
DIMENSIONS 200 200 1
ORIGIN 0 0 0
SPACING 1 1 1
POINT_DATA 40000
SCALARS temperature double 1
LOOKUP_TABLE default
18.061974179239932 17.872849047230265 17.65983884932602 17.43129272184306 17.198872656585 16.977790074816056 16.78593248931565 16.64153620711923 16.55960121533529 16.547907879479798 16.603922226926997 16.713821535020138 16.85433470423119 16.997265457810034 17.115708786826477 17.1903329620847 17.213906195736975 17.192643176816023 17.143883456139974 17.0907885361139 17.05570343967022 17.054194335879696 17.091437102312472 17.161773314081902 17.251213515619494 17.341801523740678 17.416313877936556 17.46187380046366 17.47165549028207 17.444699056259754 17.384577167407937 17.297918958802498 17.193505833965833 17.082016850856125 16.975913165860707 16.88874935835197 16.833475669854195 16.819874552248837 16.85184551609395 16.925533198802466 17.029151403709935 17.14484197720261 17.252226029350197 17.33272763634605 17.37350127720542 17.369953981015026 17.326326042988825 17.254364341482788 17.170569093494333 17.092705735524156 17.036283181994236 17.011623938688253 17.022065003260497 17.0636937325065 17.126745931515508 17.19835938422218 17.265928738403705 17.3200811168607 17.356441206426496 17.37583009696548 17.383110133265497 17.38527841276535 17.389479540892673 17.40140333782457 17.424242091865818 17.45819292376444 17.50047093685716 17.545865465312946 17.587875992668888 17.6203220944924 17.63908967101311 17.64351173879382 17.636923650350926 17.62618995334643 17.62034555676883 17.628752035316417 17.659236571734922 17.71658160276507 17.801580585872532 17.910767131772722 18.036867949838207 18.169954694940174 18.29911629097005 18.41427270014648 18.507625382639695 18.57431674158534 18.612177507140753 18.620854403653865 18.600909286585065 18.55347431030424 18.48070503713366 18.386766891988728 18.278707084470565 18.166532944040508 18.062163656880674 17.97745076039018 17.921884254313753 17.90071173736694 17.913987879853842 17.956697968396906 18.01976079683078 18.09153596468368 18.159455553285582 18.211520707553458 18.237574332362165 18.230390346802288 18.186620581945487 18.107495877394964 17.999001408765277 17.871232877980766 17.736901364139403 17.609373674410193 17.50091022819942 17.421642050107657 17.379342146132593 17.379517546914133 17.425159853341587 17.51580123624429 17.646147941695048 17.805111998503552 17.976179529038014 18.139622921609842 18.276258275672188 18.37165081643779 18.41929127493595 18.421539692776637 18.38797104637562 18.331767397839485 18.265497681602945 18.19771032824914 18.131283452521338 18.063748747376156 17.989178605986524 17.90088696843482 17.794134601574328 17.668152526670525 17.527028280806363 17.379308331700802 17.236521953878245 17.111142929071512 17.01465174922211 16.95624631783588 16.942386409706675 16.97690493814219 17.06112609446778 17.19349453245715 17.368641367843637 17.57635555880702 17.801245499191786 18.02373179415582 18.222458401051444 18.377560250944285 18.47385298042116 18.50309522494643 18.464900775051774 18.36634936971167 18.22061468880079 18.044960712914737 17.858394507776705 17.67925088482384 17.523033979471506 17.400846241632944 17.318608916031863 17.27705957174643 17.272340261742208 17.296968268742987 17.34107618339881 17.393878129425232 17.445252194695126 17.48715711942236 17.514485854116746 17.525057736543978 17.518775492707324 17.4963547496337 17.4582370176145 17.40419092370299 17.33375748970225 17.247310969188312 17.147280797100542 17.039071492414656 16.931353709960387 16.835576758468342 16.764720692680807 16.73146772310449 16.74612340399505 16.81471004337873 16.937633183288725 17.109187839058578 17.317992316473582 17.54828757768149 17.78193098920796 18.000798979818843 18.18917002733035 18.335555550640173 18.43351101573902 18.48125949074179 18.480394782199355 18.434267258052245 18.34669297813922 18.22136388984969 17.848558122461746 17.68276675235768 17.503109845638356 17.314421486465086 17.124243310322935 16.943729887438945 16.787436594514944 16.671490752611913 16.61022430350414 16.612090069572012 16.676203256212627 16.790862750056775 16.9348896397028 17.08176645640509 17.205646987599234 17.287607936430664 17.320273298992188 17.309314044634906 17.271265163150396 17.228306730834753 17.201661574850576 17.20567019100111 17.244278190523993 17.31078094286583 17.39057230553808 17.465724955347515 17.519780508337366 17.541276503630225 17.525207149788017 17.472520694316675 17.38849393787359 17.281057445762652 17.159800236190044 17.035706047612255 16.92108089540561 16.828952498058744 16.771516316395637 16.7577686092149 16.790994846969955 16.867026062791485 16.97404368780428 17.094267120326347 17.207266752594066 17.294120030657336 17.34135285871042 17.34367284503074 17.30486353162457 17.23671685346728 17.156346542155134 17.082522806798263 17.03178797327183 17.0151183657044 17.03582990575805 17.089241849735203 17.16424585456375 17.246402791700213 17.321688791391367 17.37978484588679 17.415996385729706 17.431426406213113 17.431650922733116 17.424574470034525 17.418223994373204 17.419016886257783 17.430701406017068 17.45391982941066 17.486284819241707 17.52293475093344 17.557596490126766 17.584112990925714 17.59819074557343 17.598918225616607 17.58956153871997 17.577325725662373 17.57209945795958 17.584505674554556 17.62372271460347 17.69550836768476 17.800753325840663 17.934814816473306 18.087840562845297 18.24619178358946 18.39482139309721 18.52009653035512 18.612260168230527 18.666732168930626 18.683851570068573 18.6673171423105 18.622160641894016 18.55325403692775 18.46498978227199 18.362072393373293 18.25071709232932 18.139328405682132 18.038032781464455 17.95706174085701 17.904562177847794 17.884655696904 17.89641387048663 17.93401202429487 17.987901263783947 18.04656664205709 18.09837557479429 18.133136668656345 18.14320810019494 18.124203619283026 18.075423405126692 18.000038868070074 17.90488179026412 17.799629009335685 17.695368932290755 17.602897814061226 17.5313388745189 17.48755335794406 17.476334173915046 17.50084942739911 17.56261967967285 17.660640184500014 17.789924947057408 17.94034858070831 18.096809716960387 18.24129289318963 18.35654269447628 18.430202594014162 18.45786689848652 18.44379936129115 18.398976349197554 18.337181386203778 18.27059407442866 18.206379693421198 18.145261915249613 18.08228148220903 18.009260905233923 17.918097356073506 17.803903991070392 17.667150781966363 17.514265738967183 17.3565987357269 17.20813386727787 17.082716003137158 16.991677361182518 16.942529944023867 16.938892396512973 16.981257543837287 17.067860250904538 17.19497493755452 17.356440298139326 17.542813971637056 17.740933559039018 17.93455875368182 18.106243577550842 18.239959302658313 18.32363417464745 18.350873205078237 18.321544756951074 18.241362764679256 18.120805433228956 17.973667506169175 17.8154062322156 17.661383262048712 17.525158919443683 17.41706181277149 17.34323278609539 17.305231809503088 17.30019346246538 17.321491593212297 17.35989074890634 17.405116338119722 17.44761456200203 17.480078927046687 17.498265176279954 17.50082088609781 17.488265030541314 17.46164500845254 17.4215321178665 17.367805562759933 17.300254969771768 17.21965558172987 17.12882585101856 17.03327123663379 16.94121868596231 16.8630187032791 16.809995820765028 16.79290181980496 16.820202245468373 16.8964855897776 17.02128474152863 17.18853809890948 17.386833234711233 17.600497904615686 17.8115025416454 18.001959827285443 18.156759144233042 18.265681516996406 18.324379605948295 18.33395232323766 18.299363736516717 18.227371384451274 18.124708924488726 17.99700749329013 17.629465430665345 17.496955302945572 17.360359621434032 17.22045863881591 17.080158313976224 16.94609314284073 16.829118154613305 16.74302795771814 16.70145178250269 16.713695039296724 16.78091078609722 16.894071138565856 17.03472234664493 17.178638974938163 17.301533613645937 17.38522137064762 17.422339659602986 17.41804923416108 17.388062459774606 17.353569447954825 17.334694370005085 17.344585906889154 17.385952506744577 17.450940458927228 17.524092478989285 17.587144320255412 17.62394856379668 17.62399573217564 17.58373111840257 17.505819101383892 17.397258293655476 17.267468759344876 17.12710599643627 16.987671533426028 16.861405213368826 16.760771327983555 16.697127048306093 16.67867743707091 16.70828742678221 16.78193239938477 16.888467848022845 17.011046263964893 17.130030015689115 17.226790057241793 17.2874846980701 17.305881005872276 17.284527340531405 17.234017679623452 17.170551076185 17.112348169258492 17.075692369441395 17.07143701991133 17.102773007151914 17.164838651112387 17.246327615345837 17.332672059107473 17.40985712705708 17.467715509409373 17.501785206811405 17.513388425824036 17.508229499051474 17.494229789426093 17.47937540631318 17.470102459919172 17.47037638591013 17.481348496030208 17.501410886371644 17.52658548154787 17.55132229996082 17.569785022088414 17.577516818520973 17.573109231252424 17.559332168205724 17.54326254714745 17.53525365359522 17.54695374916253 17.588829848855603 17.66771420474616 17.7848387439905 17.934764937941516 18.10556963586449 18.280508202072095 18.44103353802848 18.570538906406068 18.657748611003086 18.698615056714207 18.696056844082257 18.657742635662643 18.59296601364166 18.51000396099306 18.414995436848937 18.312509377885394 18.207082232085213 18.104578460536626 18.012452369395113 17.938671533221346 17.889780873400728 17.868971327964783 17.874943970097323 17.901961290414054 17.940999607135716 17.981566572842507 18.013620665030807 18.029122578005193 18.0229899301453 17.99349029578297 17.942249439102817 17.87399984556484 17.796029556250637 17.717209402516453 17.646622791559636 17.59212804447739 17.559385777812714 17.551740438956756 17.570867164072613 17.61758252535738 17.69205041084076 17.792967022016484 17.91601232963382 18.052494883095022 18.18928527431937 18.310669842801033 18.401846007870123 18.452875731287424 18.461505323876082 18.4336070870862 18.38096068129074 18.317190930644486 18.25337469877771 18.19483818358536 18.14008870557734 18.08201631672469 18.010808800361076 17.917620222944173 17.79792481533767 17.653627536618412 17.49335616265279 17.33087914452464 17.182161489196627 17.06200134835724 16.98130130854226 16.945742712244563 16.956038710037397 17.00928934640957 17.100557174092298 17.223836119903556 17.372077245123453 17.536586416477324 17.706535148948035 17.86927177995459 18.011634349781794 18.121873069255305 18.19146503883713 18.21621692115226 18.1964666304004 18.13659956803713 18.044243806556423 17.929388789246563 17.803463628539753 17.678306006181835 17.56500275360902 17.472699025084967 17.40754416346148 17.371942521443522 17.364255392623754 17.37908789004221 17.408248594356905 17.442317832776716 17.472507517545242 17.49227297091297 17.498127970016004 17.489402726395248 17.46715702105929 17.432852418944265 17.387457732012837 17.33136994354987 17.265071691638333 17.190100440268175 17.109843878481065 17.029857151250987 16.957639349477333 16.901957215579056 16.871840880468916 16.87537169962088 16.91839817112442 17.00334909233678 17.128328295013976 17.286664778876705 17.467078746643335 17.65460700776759 17.832351943902164 17.98391038371792 18.0960280228845 18.1607717997305 18.1765239923554 18.147461592606817 18.08174676521081 17.98911457632598 17.878654763729735 17.757338555824532 17.43260630735218 17.33940053118579 17.25052048376731 17.162550703867236 17.073697003268297 16.986046540490843 16.906742293263527 16.847251328787888 16.820545043106655 16.8369017658802 16.899741574181334 17.00306070473847 17.131581753630794 17.26386550615133 17.37764259789788 17.455820482914838 17.491264607210354 17.488716710492945 17.463089808333418 17.43460466671899 17.422346140086677 17.438365698357757 17.484216447211544 17.55089125831587 17.621922264211854 17.678359518977143 17.703850152540543 17.68823434415539 17.628837317273646 17.529616995296355 17.39908799042121 17.248163899903652 17.08870667400062 16.932911596827253 16.79309027104565 16.681230298962564 16.607935031957602 16.580782547293442 16.60253550333393 16.66981973521957 16.772836861086375 16.89643366982934 17.02249314042064 17.133225119255968 17.21462659716601 17.259264520774188 17.26767016026384 17.247984693584154 17.213933367892967 17.18159123520315 17.165661984325308 17.176112937443733 17.21598417749227 17.280969182556372 17.360915892775054 17.442807338558914 17.51427837350296 17.566562452259134 17.596040986611822 17.604153902528324 17.596034380355874 17.578583198585566 17.558688492791028 17.542004810555554 17.532330427054376 17.5313705948368 17.538659552053822 17.551600888186897 17.56581068729649 17.57601445029495 17.577559880000763 17.568247323371903 17.549873081194644 17.52884145480797 17.5154759354614 17.52209674726743 17.560303297124452 17.638072859204964 17.75729261781397 17.912290951642884 18.089863284545192 18.27110412311815 18.43493800885083 18.56261752142783 18.641889811956343 18.66940072280469 18.650432209525704 18.596113666314146 18.519318753044605 18.430980798664933 18.338231443205316 18.244768521088393 18.15274906871 18.064874740589968 17.985463838787076 17.920014551943314 17.873600067475962 17.84896071903081 17.845187974035884 17.85753141421344 17.878353091050336 17.898837155098047 17.910867532798672 17.90853863138167 17.889003585497857 17.852659302031086 17.802857545875277 17.745325883345036 17.687345199015493 17.63664696997562 17.600106757612316 17.582563759012235 17.586247623379553 17.61111989815225 17.65595613409992 17.719498301622686 17.800864400423013 17.898782455306144 18.00994954512875 18.12748365774935 18.240616459858757 18.336296991976496 18.402433384814508 18.431571386241824 18.423412379082777 18.384966844796505 18.328146449306214 18.265698433304667 18.20702784923144 18.15538159754101 18.10723276269225 18.053888120759776 17.984685525929912 17.890789918460538 17.768517292709237 17.621265981256126 17.459495918438318 17.298735516405966 17.15619420851408 17.047015609373354 16.981322914243144 16.962898239776774 16.989695045054425 17.055668697471827 17.152950627419003 17.27341467590125 17.40917626453159 17.552245790840058 17.69402856380237 17.825356318181196 17.93729243463137 18.022397664557655 18.075848650268867 18.095929714087966 18.08382497065253 18.04300828265513 17.978625019709703 17.89707857551826 17.80576537527339 17.71274808633797 17.62618650640501 17.55348690453239 17.500276543248354 17.46941256803485 17.460299080699436 17.468802766739405 17.48796824556996 17.509493672899115 17.52559335020339 17.53062499848326 17.52188652681197 17.49934048110778 17.464537374498626 17.419383582605832 17.3654049788577 17.30379987909959 17.236096993784678 17.164937797770857 17.09453172195443 17.03059203671456 16.97982845318175 16.949189872705812 16.94501830076489 16.972197801018737 17.033346444623024 17.128110549201047 17.252644288748556 17.39938182416079 17.55724585453922 17.71246775767115 17.85014378792308 17.95644438297574 18.021061670162872 18.039200054076304 18.012407028885267 17.94789345510314 17.856554080588033 17.75036170967315 17.63992609115467 17.532779952392694 17.28203757517128 17.229348195815163 17.186965458729258 17.14762723092835 17.10531547132723 17.058049475707122 17.00964192442555 16.96946071400503 16.94989603610604 16.96217975698578 17.011972934516017 17.096352866023746 17.2034129861779 17.314828853053484 17.41075102011423 17.475563036674764 17.502643144453952 17.49646570657889 17.471188002959774 17.446063845687977 17.43917013344684 17.461555492445825 17.513751255629867 17.585693939568174 17.659868885480453 17.71639606927367 17.738248781776168 17.714982736121485 17.644120074076845 17.530314365196553 17.38318535067903 17.21495274390507 17.038690559080774 16.86741820432634 16.713708629716884 16.589287462598996 16.50424544778628 16.465822035705227 16.477032058497425 16.535576920653977 16.633487723900746 16.75781729526338 16.89245667852032 17.020834529418718 17.128946808467965 17.207982794576147 17.25586028542743 17.277256811340408 17.282117700092286 17.28299767830028 17.291864360687946 17.317135098292308 17.361711769165606 17.42256912038436 17.492017812267985 17.560206251862233 17.617982780202837 17.659149909432585 17.681468588098312 17.686340376504816 17.677609831023922 17.660150683743595 17.6387754199402 17.617665941005576 17.600173711690207 17.5886656260248 17.584177975639868 17.585927605636527 17.59103574868153 17.594926001252347 17.592638657791596 17.580836133481604 17.559818887586445 17.53471080252306 17.515216035591905 17.513857018801332 17.543103232090335 17.612090808706398 17.723698949972302 17.872698176242864 18.04558159885071 18.222461095730452 18.380932336624223 18.5011063491954 18.57034623775346 18.586055928144972 18.55542014942742 18.49216739594684 18.411684307027738 18.326486515856754 18.24376490968957 18.165631916272748 18.091395800476857 18.020374951527373 17.953784080510594 17.89494152114108 17.84798221514096 17.815921927187052 17.799062821674724 17.794422053285153 17.79634610159446 17.797997540853267 17.79313277649203 17.777585975219253 17.750092403498176 17.712392040611874 17.668781876780198 17.625327377116452 17.588846393432725 17.565709994422217 17.560597473566347 17.575546809080127 17.609737833511144 17.66023655741824 17.723445724941655 17.796533293835324 17.87799754327077 17.96693178146173 18.061301912490904 18.15622918097344 18.24345486992807 18.312677608925146 18.354496326407073 18.36376046187091 18.341756952189098 18.296099672814762 18.2382216463258 18.179447399334734 18.12718694974279 18.08262719815217 18.0406048830809 17.991542995093404 17.924747528666938 17.83208961169217 17.711076995765882 17.56648133246909 17.41002561133131 17.258141063955247 17.128379222597992 17.035520837995787 16.988554157773276 16.989398392312857 17.03360188744285 17.11250299532117 17.21583877353112 17.333769988649053 17.45776555301986 17.58048230656772 17.69528068021901 17.79605096986037 17.877621163635812 17.936494622846215 17.971394640611162 17.983230132415613 17.974495466026486 17.948466620512388 17.908623944505276 17.8585173690805 17.80197911195529 17.74338634449174 17.687665814526778 17.63986708272985 17.604320555822994 17.583582169140463 17.577515885066884 17.582923892245294 17.59402467615948 17.603774350499435 17.605631372657573 17.595097876235943 17.570430003913465 17.532311566184518 17.48281674931126 17.42432640725826 17.358997036896664 17.288966600547656 17.217003328287984 17.1470713033518 17.08440970085182 17.035055495062903 17.005026055549806 16.999458167367816 17.021900335824817 17.073811904049677 17.154240949237288 17.259644058797818 17.383836745766367 17.518105743173518 17.651580002194002 17.772020956773254 17.86717220650481 17.926626795659484 17.943858436104087 17.917795159764015 17.853303932059735 17.760283409266574 17.651581182540443 17.54036898983553 17.43770163562951 17.350767781774433 17.193778663525762 17.178238438405316 17.175739578990935 17.175977055503438 17.169689114998473 17.15178160316551 17.123486504631813 17.092503465884846 17.070732723481257 17.070185802433183 17.098469555345265 17.15548994260835 17.232629866335465 17.31481857087888 17.384943092497906 17.429246563249233 17.441943287986277 17.42741701477773 17.399090496054175 17.37518240645409 17.372706224045466 17.401746502425716 17.461961348926213 17.542426716780184 17.624709765185127 17.68794646099074 17.714135138809926 17.69201425926955 17.618629739046245 17.498650135588232 17.342239263637016 17.16256412274854 16.973777243247607 16.789787421455152 16.623640537190884 16.48710092371628 16.390084918460683 16.339825266912808 16.33988132151934 16.389267820427996 16.482039005973412 16.60763434462683 16.752149391276618 16.900438834688945 17.038656096180485 17.156618080983268 17.249373765135907 17.317567585181855 17.366525918119823 17.404325287842923 17.439343981123642 17.477933328414352 17.522848124146968 17.57289320311843 17.623855019696137 17.670303719962476 17.707508203890825 17.7327161568282 17.745427859679264 17.746819508922275 17.73884475538776 17.723575079879105 17.70306143991363 17.679605773989252 17.656044710565588 17.63561238846922 17.621184662775903 17.614110061778675 17.613203401037456 17.614589447357407 17.61280762267847 17.60300739799282 17.58346940674623 17.557416947851898 17.53329598823856 17.523272707525457 17.540316910760314 17.59464299432467 17.690405318125 17.823492870668748 17.98112893411348 18.143710551037465 18.288803830573546 18.396455152896564 18.45425863783955 18.460380416771677 18.423296308503648 18.358250767083504 18.281834689540617 18.206881040698768 18.139638002725356 18.080021438354084 18.024304290669605 17.96862346129307 17.911603846211875 17.855114949449533 17.803198484633405 17.759996266101066 17.727767804273746 17.705838465696385 17.69079273043931 17.677693102164703 17.661760900909186 17.639888312196938 17.611536256849472 17.578882430458833 17.546343076830976 17.519683249702844 17.504880977160582 17.506866358980012 17.52833540565994 17.568994598801762 17.62563221705053 17.693171080238745 17.766379529689637 17.84147612817168 17.91678320811634 17.99200366704702 18.06644377799481 18.13717690077212 18.19832401442515 18.24214177269904 18.261657077933 18.253672785745117 18.22062888663418 18.170273891508586 18.113143453687005 18.058876703228112 18.012875164550408 17.974548369896368 17.9376509903402 17.89244335938592 17.828915729282016 17.740156241238722 17.624999491667857 17.4892694723972 17.345222698012726 17.209226111209823 17.09821387518422 17.02589483890539 16.999829495197176 17.020241478044994 17.08082141836406 17.17104954219376 17.279036370649234 17.393822416191394 17.50651902573558 17.6103581544745 17.700242829723702 17.772457400402185 17.824825490522436 17.85710408543198 17.87114115612378 17.870459687380475 17.85932196880443 17.84167282915977 17.82043208454939 17.79739484311101 17.77367171079667 17.750354003851687 17.72901882920412 17.711781407506766 17.70079679904861 17.697353765757562 17.70092728809397 17.708666603060983 17.715689872623845 17.716218018303998 17.705149217013798 17.679403688357095 17.638456332168722 17.583909197459217 17.518484669676084 17.445107536226704 17.36660351810752 17.286076749349355 17.20756190454769 17.136385009116097 17.078881868364594 17.041521570619466 17.029781484911727 17.047164263977677 17.094589060924417 17.170191279759898 17.26944718977843 17.385513051120927 17.509688560120768 17.631957720163758 17.74163110864648 17.828190299908496 17.882442299767185 17.897956346117425 17.872503441149902 17.809004406332527 17.715501275194498 17.603961514003355 17.488163657826338 17.38123798231513 17.293467793510068 17.230739030103585 17.17296988527555 17.18787665999233 17.214929142649847 17.241876257278435 17.257528660202514 17.254962715499957 17.233845026114775 17.200792025403455 17.167324501530118 17.145951780571536 17.14573099766487 17.16890258097995 17.20982649772995 17.25664408117569 17.29518264753378 17.313874341435344 17.30806696646189 17.282194466589928 17.248892384292603 17.22516200899254 17.226770665654495 17.262782853400406 17.332114837209026 17.42326394642216 17.517193540183776 17.59225489165761 17.629439788574153 17.61636617375608 17.549074030762316 17.43160133227929 17.274030890237047 17.089993065744423 16.894451573784895 16.7021726024516 16.526844621196663 16.38056939575515 16.273422801954155 16.212905860963975 16.203268580549487 16.244834954949766 16.33356785426477 16.46115800183083 16.61585055259497 16.784014295293428 16.95217754633427 17.109040463567112 17.24694671017568 17.36246996492471 17.456043987082822 17.53081808983424 17.59109483477778 17.6408028379339 17.682460469509245 17.716940395502835 17.74402853211813 17.76339418363323 17.775375596372065 17.781113367002035 17.781991199776723 17.77880438393712 17.771267924706432 17.758277149331033 17.73887721101728 17.713458987609766 17.68451149251855 17.65640872155695 17.63412555634683 17.621297782126398 17.618448356925803 17.622283182934336 17.62660573430616 17.624710761374512 17.61240712104563 17.59046095730666 17.56543797081078 17.54854323680061 17.55277485021467 17.589209459152176 17.663417899506694 17.77295787186531 17.906719455715773 18.046594053839144 18.171395754206983 18.262188951938942 18.307428650874513 18.3060479187321 18.267170518784443 18.20640977971515 18.140179901445126 18.080330877002456 18.03121873871569 17.990126912965245 17.950404301003935 17.90558533799646 17.852597978583198 17.792885628993936 17.731373967136975 17.674122652825158 17.625863697220566 17.58842706434778 17.560512285662806 17.538670854821728 17.518945820567666 17.49848711912492 17.476613551394447 17.455101781911146 17.437771311663436 17.429574705703352 17.43540295332105 17.458797759651343 17.50082733250711 17.55948983871934 17.6299951752663 17.706010332170607 17.781495114618124 17.852358109785 17.917117325412185 17.976171638752692 18.0300122644669 18.077346099652942 18.114271315663004 18.13517076583214 18.13506490776602 18.112288785990927 18.070054869233598 18.01595656449865 17.959497346233555 17.908705698687015 17.867279629646774 17.833358865794306 17.800249111695333 17.758689528097637 17.699864545659317 17.618320981179558 17.514094865210517 17.393545455407928 17.26862748881225 17.154657897139984 17.067042467834913 17.017802537010244 17.0129012852269 17.051178720962476 17.125173088575846 17.2234232233643 17.333319622076687 17.443474886462287 17.544977147781214 17.631546578352154 17.69914054381524 17.745643896222425 17.7709370237112 17.777149669297703 17.768644000869806 17.751390587543597 17.731781509137743 17.71528116916013 17.70542336470061 17.703493071493206 17.708918444616685 17.72011561132983 17.73538298256406 17.75345790175541 17.77350756487183 17.794587484761887 17.814882693564616 17.83121535908876 17.839226868485504 17.834305022132845 17.812889460276455 17.773523842445083 17.71713238829736 17.6464447904836 17.564999199528437 17.476379011130454 17.38412840395972 17.29229002905859 17.206063918939986 17.131995105497115 17.077391034153415 17.049116428058763 17.052213989927495 17.088810623581548 17.157567681632365 17.253702067858026 17.369467453280354 17.49494662231091 17.619013212577723 17.730345182280594 17.81842189376944 17.874504328268557 17.892626796825684 17.870556568858 17.810520522174716 17.719373309520904 17.607929630761436 17.48943731831923 17.37749776739093 17.283936080772296 17.217065826513124 17.18056232882096 17.213028242155556 17.250165366201397 17.295106741446556 17.334808761826412 17.357549346548765 17.35595583704083 17.329239498533287 17.28358719350247 17.23027438505794 17.181997443735384 17.148690945370067 17.134322198537316 17.135782820144605 17.14424869357094 17.148565440889115 17.13957345830167 17.113952014918784 17.076224194535985 17.038067918834642 17.014948367666157 17.021064180969862 17.06429363485002 17.142902346175536 17.245153588949403 17.351898444539128 17.441177976673277 17.49327605375357 17.49471272626356 17.440254289128944 17.332818372925534 17.18181926425911 17.000805690206167 16.805165857911216 16.6103556072012 16.430749146949886 16.278968542382575 16.165460214078603 16.09811557440233 16.081825772187294 16.117987850834844 16.20411617758668 16.33380358981484 16.497248564423696 16.682392212714724 16.87646474332613 17.06756512415998 17.245894381110578 17.40441907979754 17.53894685342279 17.647746231215383 17.73091755903486 17.789755026986253 17.826333644730877 17.843452361044847 17.84483651068642 17.835252091097846 17.820118106319462 17.804456948180828 17.791495264458355 17.781607484344477 17.772284579704664 17.75936500496161 17.739127529677415 17.710375589432637 17.67557967694938 17.640499230499977 17.612311216599345 17.596895134807983 17.59633682708241 17.60773611574535 17.623964995213957 17.63624559814374 17.63762481618514 17.62600099734202 17.605522487527548 17.585826461503586 17.579374496903274 17.597720404564107 17.647773490161835 17.729072042290383 17.83288411236966 17.943621311823573 18.04250385431714 18.112650383597334 18.144025922323245 18.136399097262917 18.098981682100757 18.04669483804132 17.994485834934093 17.95203660946224 17.92102736876162 17.895903541312716 17.867482159204062 17.827559036687184 17.77247792970299 17.704365447893828 17.629920062175945 17.557651289326053 17.49489880240371 17.4457776336344 17.41061917530739 17.386820585861255 17.37053355035421 17.358450594514053 17.34907970282113 17.34321292750351 17.343611982583486 17.354119118080146 17.378446395790085 17.418898173214732 17.47532609911007 17.544672001802006 17.621391240124805 17.698773206321807 17.77075574754812 17.833494219646553 17.885938921255267 17.92908489742138 17.96422925266068 17.99115794087508 18.007327867950295 18.008653944361733 17.991636788118935 17.95574765249753 17.90472764739077 17.845962279051545 17.78809183117454 17.737925401390825 17.698025772515457 17.665919482903487 17.635094320407052 17.597258318493452 17.5450416602473 17.474397104400257 17.38618259369826 17.28661927367229 17.18648931932637 17.09914647667531 17.037700947861467 17.01204281113227 17.026533193069692 17.07907718410904 17.161866059756388 17.263476511835382 17.371514104925026 17.474858165761596 17.564895265838057 17.63573134878744 17.683879093459055 17.708022618690492 17.709143787681356 17.690821739017025 17.659238964354927 17.62251847984874 17.5893806751067 17.567486994306208 17.56200979139436 17.574874599256084 17.604850963320633 17.648360680469292 17.70064028365556 17.75680481433225 17.812444476253784 17.86363267937358 17.90654544778056 17.93712444368949 17.95119822585693 17.9451776278891 17.917026388534186 17.86695787148008 17.797422177113965 17.71237778370735 17.61630256057268 17.513562279778178 17.40849260094246 17.306038614810934 17.212389795229782 17.135020810865498 17.081895731746545 17.06005706935531 17.074104046509774 17.12504452740361 17.209782197409304 17.321265516999137 17.449194129221254 17.581140618948368 17.703933673869518 17.805132083024603 17.874419253624417 17.904783722503378 17.893394772866323 17.84208610130623 17.757323141655657 17.649520491851355 17.53167639015567 17.41750125997744 17.31942211517075 17.24689225536475 17.205273467455292 17.195303862168487 17.297121065746783 17.348564973098036 17.40080850543671 17.440990