# vtk DataFile Version 2.0
Really cool data
ASCII
DATASET STRUCTURED_POINTS
DIMENSIONS 200 200 1
ORIGIN 0 0 0
SPACING 1 1 1
POINT_DATA 40000
SCALARS temperature double 1
LOOKUP_TABLE default
18.276549073767928 18.024090335545313 17.737641054811924 17.42593923325989 17.10049170408558 16.779161256510132 16.48904933996034 16.264471911493573 16.13877706131206 16.133232549638052 16.248210945555822 16.460194398260256 16.725159460938073 16.987355193956205 17.19211502091303 17.300210062725697 17.299244321603993 17.207120054569717 17.06547123379799 16.92569110094202 16.83330302055462 16.816065034063193 16.878565484853063 17.003551234581177 17.15886610842727 17.30800899234249 17.421200317622006 17.48297695564828 17.493151068510862 17.46111981390173 17.397436561983124 17.308219692558094 17.195708953051493 17.06374204223266 16.923688180355438 16.796535054875875 16.709472109250516 16.688177665509382 16.74774310558123 16.885673079710227 17.07984813771989 17.29269289338707 17.48042602625538 17.60426295541653 17.63985318808422 17.58220634792456 17.445233263549518 17.256980696606863 17.05287302271321 16.869109394937166 16.736976509235944 16.677665987807046 16.697640696581956 16.786211876429864 16.91764835902231 17.0584557283054 17.177485898302038 17.254709573021447 17.285213449987587 17.27756418631681 17.248304224077977 17.215621658988674 17.194789002095202 17.19626947497136 17.225544588894493 17.283007668106443 17.363222818036558 17.45454879790698 17.540853480672062 17.605920772586458 17.63905808567317 17.63915006178279 17.615048297160058 17.582271264094203 17.55801698786784 17.557068630719566 17.589974534410175 17.662933550639526 17.77774293652359 17.930823790181986 18.11201535480363 18.30489084413266 18.489740981771828 18.648539748559603 18.769604573006454 18.849481864562108 18.89096167746458 18.89828483050904 18.872389497820727 18.80932702631085 18.703285462864926 18.552799801934498 18.366524602675092 18.164922061523193 17.97643153830503 17.829747343016642 17.7458568155474 17.73324446997882 17.787463661962697 17.893911443610378 18.03185057942492 18.178461376501353 18.312439941262053 18.416494668779347 18.47794040201025 18.48767442872884 18.439494803183102 18.331781005411898 18.171074854917087 17.974236557982508 17.76589076918255 17.57145057577684 17.409971546734855 17.291588765070287 17.220699839328923 17.20156534486201 17.24139254867185 17.348169437181074 17.524307163033257 17.759758851172663 18.028632799801972 18.291923773854993 18.506598851144915 18.638382000221604 18.673117114413778 18.62124436281395 18.512824921693998 18.385453979208616 18.270990886593665 18.186755831274017 18.13338784333133 18.098042695606598 18.060352583852744 17.99919943639594 17.899074081707848 17.754777833943084 17.57315747458824 17.371242844092787 17.171408758882503 16.99530538854324 16.858834932617725 16.770187240677995 16.73170398096114 16.74433075178605 16.811643356889295 16.940248752457563 17.135344075365968 17.393425282879246 17.696504032120043 18.011934128650662 18.298941677516638 18.519019556530903 18.64516940495574 18.6661508083327 18.585466496116368 18.417828547643676 18.18598954183142 17.918548310677078 17.647277094764853 17.402726200506816 17.208906791722356 17.07945985489533 17.01715213840827 17.016288157212482 17.065842715616423 17.151423389210326 17.25608859262149 17.36160024945481 17.451396940781102 17.514715492681276 17.549510040252027 17.561754713862303 17.560738141717955 17.55273288672345 17.53677050496021 17.504949813508908 17.446715720352373 17.354259415564208 17.226242905242273 17.06892089017743 16.895487833283138 16.724735312282814 16.579206843135125 16.482401952095994 16.455035653957268 16.511286276661554 16.656181457013844 16.884518968247686 17.180923987587903 17.520743239275884 17.872280520688644 18.201235003318043 18.47720421154453 18.680182524031903 18.80382186686763 18.85337616000844 18.839413200689 18.771172707038914 18.653438589841546 18.487886662716633 17.920673911115898 17.70788927174711 17.479045771131076 17.236621090717687 16.98452774697749 16.73294897366055 16.50261998535762 16.324012316510515 16.229775125976087 16.243405317597812 16.369433930085876 16.58903532770228 16.862133955779658 17.135408800165195 17.35495641048655 17.481002294008647 17.499915168682303 17.42827597426456 17.30665451932946 17.1855718075007 17.109442929974396 17.104189528290657 17.171720420069473 17.291812165506208 17.430139303122974 17.549930829829876 17.623520172495564 17.63948828429516 17.602423670010086 17.525893222600573 17.42320826830939 17.30187161523571 17.164746309217 17.016075397021915 16.867383220118885 16.739010417664016 16.65622198664215 16.64174257751249 16.707757343397063 16.850188003495912 17.04719602349412 17.26267054875412 17.453994677020628 17.58201374606266 17.620384788444923 17.561650994230895 17.418446852467635 17.219931483525784 17.005121275748476 16.815232077752942 16.686265773658192 16.642142692646406 16.689063380845884 16.813075241107327 16.983056673353026 17.159349640498434 17.305258524015454 17.39695716708999 17.428210130659316 17.408911626868928 17.359073996216416 17.301332923140926 17.254913938984856 17.232597157502088 17.24033444125551 17.277969037856913 17.339751272476562 17.414673742194857 17.487778950732803 17.54342965830551 17.570122415911417 17.564890994246376 17.534999368657523 17.495937038644396 17.46686038825001 17.46593985211519 17.507497309335204 17.600889852353234 17.74959452058057 17.949291922324374 18.18565261144616 18.43420219610094 18.66433994046755 18.847195860287947 18.964190923499118 19.011997469755073 19.0010593487119 18.948239765558146 18.867593104371895 18.76452745715442 18.636666717400686 18.480582469845107 18.299935391872193 18.109828728553836 17.93466799165317 17.80075299825497 17.727654040872416 17.72250552869743 17.779025101360673 17.880368942287685 18.003806465518373 18.125699608029706 18.2259079104125 18.290621464980227 18.312634066495573 18.289375234494305 18.220904653655218 18.110266605663604 17.966135101439846 17.804680914407168 17.647366255995692 17.5146880280691 17.419796281000064 17.36660361948501 17.353641806150574 17.38043530362366 17.451313641215098 17.573567685685553 17.750741126689505 17.974872594413792 18.222264671966077 18.45597270789863 18.63533950795815 18.72940955355561 18.728403056339705 18.64748786572628 18.520618697232546 18.38742117815751 18.279448072200328 18.21139417117382 18.179225843187574 18.163914675294908 18.13848676331985 18.076557568825475 17.960643010313465 17.788043022845073 17.572185147806238 17.338759601962604 17.118075435070555 16.936549057827502 16.81046912277908 16.74424548725648 16.73353374327307 16.771413551049687 16.854131618888886 16.982927687786265 17.160583509192367 17.384615367455524 17.641429783236465 17.905518646250385 18.14480306503274 18.329410218037 18.43914387529929 18.466203620343705 18.41328992138874 18.290136093477756 18.111420495197823 17.896440048927936 17.668596345588572 17.452845528945744 17.271403529838018 17.139845102843676 17.06547373875343 17.047922863623114 17.080449356489076 17.150746267457226 17.24172412013841 17.3337217897334 17.408840403080582 17.456103810614813 17.47461943343077 17.472314899446022 17.460294242802345 17.44583172337639 17.42816145637577 17.39937906175121 17.349307284005366 17.270913934548123 17.1634405180097 17.032787136329535 16.890499200418198 16.75258205177836 16.638127085839034 16.567085021739597 16.55714134087893 16.62059153171576 16.762149536232226 16.977767089916707 17.253954141442957 17.56760511555844 17.887429419065995 18.178356439126823 18.408863836732497 18.558760871825623 18.62354318213257 18.612701532163136 18.542902911203235 18.43016187942559 18.285330603548257 18.1142874924909 17.550741849220227 17.399243693440926 17.250228050691632 17.097951770073106 16.936746727727346 16.767450842213947 16.60338674010363 16.470931094573604 16.402600812370327 16.425376487002367 16.549653346941476 16.76316810645438 17.031518161123753 17.30506132418151 17.53113435956105 17.669029114467893 17.7029034566981 17.647058081698415 17.540657299610455 17.433829545179357 17.37086606661152 17.376765560374814 17.451168008114877 17.57070065359118 17.698242888866126 17.795820517427327 17.836697138920737 17.812183263991624 17.73053450469102 17.609064713259695 17.464400156477332 17.3067529752931 17.141004569415887 16.972485367860376 16.81246178126528 16.67934939550483 16.59501418843845 16.578290021955343 16.638547608803727 16.771377675019654 16.95744374651007 17.164878919396443 17.35504062266778 17.490682571038086 17.544688212295718 17.506876105237556 17.386670361083738 17.21087698021615 17.017663279347644 16.84873685066247 16.741194714129755 16.719747574502318 16.790415756277294 16.93794185557649 17.129139161733463 17.322168165508444 17.47865189087855 17.573982406497535 17.602186708222124 17.574366425143324 17.51232170311799 17.440430384794322 17.37890621406479 17.340377269361586 17.329845103566473 17.34646437979479 17.38518387393208 17.437324561271343 17.49080801722449 17.53164891350759 17.547625514151818 17.53313465397749 17.492686982944075 17.440819375338283 17.3983539977864 17.387135436461737 17.42572593173038 17.52687298974984 17.695629830658984 17.926793094745047 18.202155428793848 18.490211395102783 18.751076398632154 18.946723077431027 19.052859112277407 19.066657011273968 19.005903045594028 18.899510321255303 18.774239902688283 18.644756113150482 18.51209910011439 18.370464453178887 18.217275831107216 18.060094535736933 17.916531260784645 17.807883654093967 17.750642228641347 17.750379277881038 17.800247923096332 17.883525986907564 17.97832479390747 18.06285122026374 18.120087095124106 18.140643373197168 18.12270248084429 18.06941140757761 17.98603141836881 17.87936462236352 17.75957149767856 17.64156493277472 17.54289491330101 17.478142477843527 17.453516438539854 17.46598184610456 17.508020213767608 17.574753042737658 17.66827170313564 17.79589462980667 17.96301321268016 18.164503819442356 18.379758801544394 18.57499186682276 18.71314750960311 18.767689149689687 18.733769043640716 18.630864377814326 18.495234398553713 18.366036942031236 18.271847787260473 18.22285385912205 18.210024887967137 18.2095937662652 18.190698480272687 18.12463833069374 17.993994786999295 17.798979495019516 17.558421472172448 17.3046162207026 17.073847964018952 16.896149942476892 16.788015261442556 16.750517417498695 16.773167626198273 16.841435390978774 16.94410748725782 17.076647838446515 17.238911331679226 17.428994992607706 17.637521427329567 17.84638887458629 18.03300659078952 18.17732012578221 18.26719739595783 18.299293819391394 18.27609233032039 18.202456907765406 18.084615504908694 17.931666538663386 17.75723912504991 17.57897681491501 17.41565013545718 17.283639132814937 17.194510092663958 17.153890945958008 17.160749223306887 17.20668753831887 17.27623032963633 17.34954127162738 17.407764223265875 17.439070212588476 17.44221259490555 17.425189094110177 17.399367561096643 17.37244631887274 17.34452911217288 17.309386720197274 17.259306101883165 17.189858626598024 17.101975033958805 17.001445908164726 16.897645558081447 16.802715312944564 16.730874840654398 16.696919454936452 16.713803768429592 16.790234994635565 16.929087791907936 17.126440840901818 17.370525519457377 17.640707108470174 17.9080327738083 18.13921555127142 18.304234619580022 18.384891412133133 18.379950193420566 18.30376539197996 18.17910004808441 18.028369089316445 17.867952902186858 17.70728106214181 17.216821978302516 17.138302993350482 17.07967277430574 17.026213750918934 16.96179890492763 16.877133947647156 16.77765084638378 16.685577864012018 16.63365565444713 16.653012387203688 16.760772810923612 16.952245777674467 17.19981339859127 17.458596027687268 17.677967804328382 17.816541301942802 17.85595386277447 17.80767172037891 17.709142847993622 17.610357936590066 17.55625219598035 17.571834044153356 17.65518366752346 17.78002035313336 17.906101604784872 17.993317108787636 18.014355052543348 17.961406707954165 17.844699808443867 17.684353576571322 17.500454238328757 17.306932752774234 17.111863455969303 16.92226431318021 16.74886059812558 16.607253189458095 16.515044146918388 16.486927369997645 16.530103302478587 16.641303366792926 16.80572134541017 16.997994607349664 17.18562931492339 17.33503239218961 17.419219543871115 17.424922049292018 17.35643251090301 17.23477600179671 17.092843400403595 16.968293681568838 16.89567558620343 16.89856264902675 16.982990918405363 17.134664173337416 17.322230146029163 17.506485099297077 17.652188374522495 17.737754892602066 17.759374299988874 17.72889742991015 17.667323942713892 17.59694373588772 17.535102601892625 17.491464408209755 17.46887412126528 17.466153805352757 17.4803722466334 17.506987487843375 17.538378677085046 17.563138459003603 17.56841364721642 17.545267698245297 17.49426457221685 17.42772966986101 17.36721970187017 17.337815330197927 17.362270486800817 17.456853084117586 17.628430755407685 17.871457078334508 18.165024697487596 18.472578061846864 18.747467658850752 18.94487889547335 19.03623920153617 19.01926068400208 18.917847451044594 18.771096849506606 18.616716281524827 18.477434692240195 18.357063419745526 18.24691556422977 18.137338092387132 18.026986430228817 17.92503937733058 17.84646085871615 17.80422742095363 17.80310104186618 17.83746088224132 17.893051928784864 17.951132088564002 17.99350634426155 18.007154921511866 17.987002812388447 17.935658798765136 17.860507514603565 17.770457988290058 17.674814615338185 17.584413948966958 17.512450403665984 17.472259149787 17.472268946935642 17.511664806279043 17.58069931505722 17.66641708157333 17.76040436141549 17.863413235895433 17.98355915340633 18.128718711689306 18.297229504797855 18.472297143804493 18.624113660673604 18.7199814427278 18.73819410327294 18.678586889500853 18.56381591671897 18.430457652203067 18.314731980469784 18.23997383827945 18.210602944168535 18.21292892385515 18.22046207501235 18.201582528615933 18.128438767012106 17.98570742508382 17.776679347850344 17.523958027299695 17.263820252069216 17.035987652004614 16.872485581909288 16.78955251553814 16.785358913318362 16.844104614609442 16.94448287690056 17.068472779315716 17.206187465163673 17.35471544327188 17.512574120649287 17.674128603555655 17.828040225480432 17.96063491893761 18.061403867861046 18.12644363888831 18.157521506208248 18.158028154685464 18.12939894693775 18.070823114926785 17.982111384680213 17.86714257520672 17.73529876851845 17.60026673490886 17.477408805886917 17.38105001468508 17.32196156615796 17.30473034210106 17.325447193197427 17.371277393065977 17.42338878939797 17.462966157950678 17.47781951336968 17.466118292644627 17.435010422553276 17.394859015600996 17.35270588922616 17.309106673416533 17.259938872255532 17.201089543327214 17.132226794875297 17.057437057060685 16.98351627539109 16.918201843962745 16.869621448147157 16.846336746946932 16.85673658565259 16.907546994548703 17.002342152530268 17.140754095643217 17.317954783884197 17.523508320179676 17.739745685360656 17.941496241378665 18.099440984450933 18.18750040821228 18.191537210628844 18.114744084201067 17.97636211630047 17.804311779275487 17.625981925042815 17.46189281458438 17.32400487628287 16.965967474331606 16.959064952630605 16.986005692192105 17.024095878593187 17.047626718438853 17.03782914733009 16.992647238302002 16.93028745676908 16.88356106331408 16.887370567205647 16.9651446327557 17.11955268057539 17.330024167761284 17.55725999213986 17.753830694179246 17.87873379306129 17.91165802611038 17.861218556039933 17.76280414599119 17.666030664994175 17.61666933413248 17.640401043031034 17.734645106736867 17.87095982659919 18.00618031740581 18.097439138141937 18.115372773942436 18.051003651760276 17.914469905066547 17.727246193430076 17.51240297255158 17.287974762640697 17.065970293578292 16.855649928740743 16.667336474654455 16.513718757071835 16.408191636053537 16.3618117662135 16.380570795569906 16.463543305498757 16.601646766274655 16.777092486289867 16.964500520867446 17.13478566333609 17.261643253556773 17.3285644716229 17.333461299626887 17.28910066567784 17.21968475231025 17.15515005176944 17.124405220568537 17.148136795648323 17.23247568030997 17.36612072441501 17.52328745722559 17.672206894823443 17.785661617461844 17.848890279977706 17.861916258652066 17.83639749260436 17.789352603024263 17.736723592022425 17.689117021646414 17.650891017274557 17.622295839175138 17.60287597902392 17.59353940321185 17.59549669198055 17.60668230645096 17.618764818548293 17.61819841703774 17.592108240368905 17.53599379728519 17.458511396539905 17.380489634576435 17.329132124595287 17.33082541195787 17.405375687011883 17.562028917404824 17.79606338920766 18.085774425803397 18.39219364087159 18.664916643663798 18.854979672250487 18.930951290263167 18.89078022146807 18.762586660067058 18.592854808680286 18.42745182422173 18.295058340799574 18.20099051383727 18.133014538789123 18.073974746078353 18.01325596569136 17.951427530564644 17.89743793077677 17.861807032936106 17.850258427618606 17.860555434904192 17.882950377860215 17.903286920205357 17.90749783085809 17.886106027896012 17.837046661427543 17.76549667514261 17.681043764367654 17.594409364180837 17.516046708882488 17.456722049490008 17.42773889463468 17.43850008617504 17.491911005971385 17.58104893612022 17.690596876092673 17.803398181619592 17.908629783803974 18.006551139703156 18.106615917591537 18.2195544586199 18.347550751848765 18.47812091134656 18.58595217245591 18.642985548004525 18.632094904778363 18.55683469616993 18.441394115074427 18.320609416686914 18.22574974287283 18.17347665638423 18.16207062311387 18.17414286303016 18.182690016231863 18.158254807079814 18.076565621563198 17.92597934068076 17.71272164316501 17.461380533738446 17.209492191814814 16.997547272471042 16.857750861530146 16.80546193420704 16.836372942603173 16.930457989089955 17.060984736637145 17.20445655902404 17.34674730220853 17.482871382009193 17.611833649872054 17.731058384608712 17.834606001700784 17.915980513966357 17.972584788810238 18.00774084980612 18.028385876795515 18.04012655696782 18.043351019825533 18.033098212153185 18.002487576333657 17.947219500923936 17.868577406650804 17.773984625073886 17.675680743759848 17.588286932375155 17.52543583714169 17.49563508811826 17.498578897840165 17.524068407984625 17.555064413396828 17.574125975380685 17.57016554485628 17.541865807918334 17.495872117910313 17.441070298189874 17.382843097204102 17.321154206000738 17.2533474629868 17.17891654854395 17.102298530090554 17.031906207353416 16.976900889661046 16.944554359666537 16.939644220847583 16.96509609231589 17.022350535615324 17.110993484513713 17.22837151313259 17.369738525406063 17.528347466840746 17.694467765132185 17.853483705067145 17.985042590608167 18.065696338153916 18.07557204119922 18.006418573958168 17.86648674617743 17.679009319323587 17.47491253682821 17.28387641274361 17.12817840683009 17.02081469651947 16.83345492510442 16.884876019896186 16.978106630496267 17.085149580693702 17.17345610646776 17.21710199362005 17.208043126219216 17.16090703257519 17.10795601766692 17.086442606408998 17.124353098258403 17.230245698334528 17.389936405260155 17.570128590736605 17.727945624434046 17.82450434996693 17.838931295966255 17.777507498621322 17.67318100985347 17.574382764642834 17.527157994461152 17.55802241343449 17.664627342628403 17.817547070928125 17.971517856980643 18.08088247534468 18.11318444515449 18.05646066387686 17.918666647758844 17.720816121964162 17.48780828775456 17.241372196540702 16.997613958430208 16.76851513972653 16.564635668059278 16.396550025502695 16.274445120611478 16.20686989529281 16.199616702855003 16.254677180908246 16.36867760592522 16.53096693635035 16.722836653053545 16.919636643783594 17.09608311735064 17.23283120358565 17.321348079976655 17.365227113106855 17.378196947442756 17.38017355775482 17.392207287941908 17.43061092525379 17.501403201881214 17.597653253744912 17.702035659077872 17.794112735745497 17.858668602140884 17.890696217074467 17.894987559231204 17.88161770432767 17.86044184422811 17.83731785859918 17.813227790822552 17.78610594731844 17.754289853578797 17.71977613935989 17.689067943924904 17.670206674466193 17.66697066301852 17.673906889694596 17.6763963922014 17.657085790941224 17.605522621447204 17.52535151498784 17.435055199172844 17.362479797481036 17.336714051602186 17.380948883827976 17.50746951245403 17.713822051307957 17.979695131340033 18.266518180960304 18.52317399950489 18.69912828350679 18.76141290917565 18.70776639100368 18.5683755059306 18.39390260406323 18.235016554499225 18.12360723505956 18.06473520481458 18.041831069618773 18.030243320115783 18.01075081287207 17.976592235537627 17.932555837999963 17.888986839897402 17.85497614139329 17.833797385411376 17.821658007931767 17.80946709135215 17.786692990699486 17.745851931512394 17.68568868135612 17.6115061685616 17.532807625454993 17.460287233233796 17.404319564671855 17.375047474503006 17.38200388165292 17.43140951669146 17.52193661034447 17.64222710681587 17.77320586687671 17.895163146801362 17.996081041040302 18.076386129180953 18.147062735583674 18.221660796772266 18.306195704791637 18.392591357496325 18.46010876358927 18.485101601099117 18.454236398742232 18.373399537707787 18.266578353814893 18.165229479508145 18.094564510118452 18.064271294467773 18.067073350041227 18.08327075677987 18.0873244834936 18.05412086112773 17.964791930842317 17.812247307527578 17.605192189347083 17.368467818459195 17.138363716485724 16.953615989663508 16.844783779343263 16.825645380406947 16.889883700315995 17.014617445548225 17.1695372636022 17.327567235994312 17.47192640317443 17.596541871097205 17.701064099804082 17.78515400927351 17.846483068475262 17.883262562496654 17.898225096140923 17.89997222073452 17.89999494859529 17.90720915283828 17.923641340611834 17.943838406595155 17.957929760800972 17.95625579375339 17.933302473216106 17.889816009513687 17.833007771941855 17.774920862802762 17.728868311759232 17.70443211040288 17.702895136836727 17.715797514296458 17.728169492690025 17.7252123845886 17.698786365937533 17.649936266855146 17.586101759300778 17.515114595805585 17.440273200070546 17.359983201466417 17.271967752894835 17.17850457961124 17.088514606314607 17.01510011228373 16.970705909052636 16.96333174543668 16.99552360173176 17.065348542715526 17.167635569507336 17.294749815475445 17.4373634447994 17.585590716663102 17.729819844296376 17.860201820029527 17.96492396217536 18.029150874613528 18.0369487201645 17.976687742443932 17.84749735939645 17.66276248603827 17.448009831427246 17.234051116053294 17.049188065986357 16.91423323792505 16.841197587945587 16.834218275819637 16.923715400843417 17.054991138046223 17.198374188995558 17.318534963465748 17.3860744463684 17.389509256867242 17.340815019216805 17.270941616561966 17.217422593918656 17.210146083821808 17.261153054147897 17.361212883636224 17.48297788929743 17.589388937044234 17.645698128084423 17.632339357991412 17.554153629951177 17.441253249446813 17.339601429190502 17.294233443996983 17.332045750334373 17.451582826148705 17.623836012251832 17.802840130520682 17.94087185289167 18.002122968536675 17.970480221923026 17.849967652204526 17.659216448106296 17.423257008189953 17.16635429009816 16.908277019731095 16.66405267007582 16.445466549146 16.262435384939298 16.12357831173758 16.036376815607746 16.00722110440101 16.040826507989582 16.13832339344798 16.294419584217508 16.495481743218313 16.720570223836823 16.945803756958636 17.150159681804496 17.319930086989434 17.450290443711218 17.544421960771842 17.611375264063636 17.66308098226966 17.71032211231366 17.758493518936664 17.805545721474104 17.84419316125013 17.86760778730736 17.874826389485083 17.87198298735728 17.86856340002899 17.871484267057465 17.88098030418487 17.890540516303687 17.890412586373493 17.872614560068733 17.835342474522797 17.785135671331137 17.73551499248137 17.70162668499828 17.692435097924744 17.70440583737799 17.721107067673945 17.72025060329831 17.68492802385954 17.612863641743395 17.5188366632056 17.429852330763406 17.376569633640283 17.38514742797814 17.471341016914806 17.636205757582566 17.862774590830853 18.1153726144609 18.344883403260102 18.501560768951816 18.552206981072842 18.494076419405616 18.35749795146632 18.194207105199126 18.056201496540876 17.9755561600697 17.955060071808663 17.97303733387659 17.99781420181175 18.00313920055178 17.977336725646538 17.923900781591165 17.855839211531965 17.78796541153122 17.730614886256664 17.686537769649426 17.651300698475588 17.616578829552516 17.57482977076252 17.523162135753804 17.464563182582083 17.406359026817388 17.357671029512073 17.327853369405435 17.326087416845795 17.36041884038621 17.43482331749312 17.545302610888353 17.678082126519648 17.812475280832327 17.928084889193652 18.012939570106568 18.068109691515858 18.10593060529009 18.14221825225769 18.186191631275477 18.233638691203556 18.267875119141426 18.268961337032554 18.226293382124734 18.146741328200445 18.052816813368846 17.971864222837716 17.923137449317363 17.910237260521978 17.92169924874397 17.937017178020692 17.933516621563538 17.89157113757349 17.798439038081202 17.651669166350608 17.461709687155718 17.252075150285883 17.055631366828273 16.907089661774915 16.83362581564131 16.846760561645137 16.93877051162557 17.08562215253876 17.2557332921912 17.420746800831896 17.563019766566413 17.67638675240178 17.761209047727196 17.818462070122692 17.8475363835144 17.848696717875168 17.827095858932815 17.79420613758059 17.764937048487667 17.75213559687156 17.761833603180815 17.79167933600599 17.832779079665347 17.87352423615267 17.903696928157913 17.91772225971266 17.916406980049064 17.906521726526545 17.897746617851446 17.89758027302499 17.906521616324248 17.916605277154243 17.914849811665086 17.889975254268105 17.838269458210988 17.764806508757985 17.679282175303427 17.589444284265788 17.49685079841432 17.398074504151715 17.290444185226026 17.17797086030106 17.07304628180532 16.992828620245504 16.953033413305697 16.963029185765357 17.024244735469225 17.131181507416628 17.273232828085735 17.43636387980437 17.60486824322222 17.763420269506135 17.898758198201342 18.000004617247107 18.057650540277173 18.06273593173434 18.00808715535661 17.89191719417305 17.721783959994394 17.515880452140095 17.300016316105225 17.101532476832606 16.943451576167543 16.84159540668979 16.804595654006178 16.95763315131847 17.064724611848956 17.204915825138837 17.35037102227169 17.46733008025654 17.527184471399277 17.518218322177415 17.451197427731497 17.355246041127995 17.26609322136676 17.212664155016437 17.207752745748298 17.24525495745647 17.303296287400443 17.351530506352542 17.361148704449846 17.315745133982404 17.21969573128256 17.099863746795876 16.998187559857463 16.956886918888525 17.00219954780137 17.133826195565135 17.324553688423915 17.529522560882413 17.700439896053588 17.798859869265936 17.8043005054951 17.71578004427448 17.547853256054402 17.323757262205557 17.068639284420257 16.805019072994735 16.551056901700868 16.32079054143705 16.12511177699817 15.972813877377963 15.871609783799189 15.82883953630155 15.851052429405728 15.941866136741565 16.098815012141777 16.311219082450606 16.560957671352902 16.826196399601468 17.086085865371444 17.32406417583811 17.528920990297305 17.694544078874692 17.819466972742724 17.906120318213745 17.959014899778914 17.982230857514377 17.978262429892556 17.949938663367806 17.904317264255813 17.854792563028585 17.81824333105877 17.807869564854183 17.826133537988298 17.862585409353876 17.898111560286903 17.91316635694495 17.89582512611459 17.84650415556417 17.778151214033073 17.711988119975082 17.669645807782413 17.6638474206128 17.691533586288717 17.73358990420419 17.7625587355584 17.75506155208659 17.70258161948535 17.615313273111706 17.51814284473299 17.442059724653436 17.415416454671423 17.457359258876313 17.573098695333556 17.75032101666126 17.958119559336474 18.151606551122107 18.28398311354487 18.323294088585182 18.266500739556328 18.14271902818394 18.00210494299123 17.89472725871769 17.84985005239128 17.865997377988485 17.91583353324503 17.961641188884954 17.97241940764688 17.934653078033914 17.853721040299384 17.747896588557463 17.639293818101752 17.545763362511043 17.47610349716864 17.429368781949776 17.39782940705087 17.37201564468487 17.34547086360548 17.31709966001078 17.290632221208167 17.272628996426462 17.270855453508887 17.293363295825902 17.346990855939236 17.434300601933703 17.55006565182445 17.680042094647828 17.804074307917592 17.902971078723443 17.96603069093044 17.99528407938224 18.003861827235145 18.008687928014503 18.02079802457205 18.038531467068992 18.048131882601716 18.03235941847046 17.98237123967771 17.905190870036403 17.821481905665323 17.754902996028445 17.720044178641885 17.716251516270834 17.7296858767887 17.740360347326675 17.729130178955767 17.681949513847748 17.59189059720213 17.460503028016124 17.29896827159839 17.12801532029676 16.97522798523263 16.869339569004254 16.832635827117482 16.873895399760617 16.984838264033986 17.14230443823067 17.31604789589811 17.47886815278677 17.613948198606337 17.715742721753365 17.78511490817353 17.823348988741294 17.82983261968386 17.8045650236539 17.75252966408985 17.685787402039946 17.62135306142105 17.576133260873632 17.561820210361766 17.58201564323078 17.63221887752778 17.702081861654488 17.77895176715314 17.85174272744999 17.91406711913325 17.965340519565245 18.008899483377036 18.047596216948964 18.079319697564795 18.095718586454545 18.085703213646262 18.04186330495938 17.965440759340265 17.86615637232833 17.75672069043249 17.645722433887453 17.53393593951643 17.416788608346028 17.291297449469766 17.162517434563053 17.04499828944181 16.958468755635188 16.920829178096643 16.942572059936662 17.024735981980143 17.159747093474923 17.33337778435361 17.526828874654154 17.719057756981453 17.889542895052838 18.020900306210894 18.100405138882994 18.12020816938299 18.077168028051513 17.973445628486754 17.817906331728196 17.626938769815492 17.422988011222074 17.230437257589006 17.070501875522766 16.95780201637216 16.90014848590342 16.9004368257762