# vtk DataFile Version 2.0
Really cool data
ASCII
DATASET STRUCTURED_POINTS
DIMENSIONS 200 200 1
ORIGIN 0 0 0
SPACING 1 1 1
POINT_DATA 40000
SCALARS temperature double 1
LOOKUP_TABLE default
18.864417404772734 18.225517744598676 17.59392056486201 17.101311540789435 16.691091225898365 16.201635132011827 15.601289879949567 15.081315808264753 14.882842342842174 15.056280590208125 15.451598330738225 15.941365774250253 16.524408628464922 17.16836126741345 17.659970519655168 17.757596013036736 17.453316059786687 16.980749031106665 16.592019799400354 16.358628369630676 16.20739146774198 16.11835344109147 16.177585198949902 16.442464331271307 16.85662254228265 17.273635208302498 17.502350210551405 17.43086555988791 17.180367746588363 17.035585650894113 17.146035803073094 17.35960432439361 17.401317939804155 17.16507982236854 16.767498695010648 16.371745601786326 16.071020055296977 15.932884106509084 16.0378559190334 16.439945326282466 17.083943088062963 17.7865160740156 18.350286224662877 18.67214257621234 18.712278672956238 18.44042241417891 17.895869768623125 17.22099349266125 16.5575145569667 15.972264332847796 15.514488792859362 15.274216567270603 15.33917222919965 15.698239137442581 16.19780356167272 16.635223670927132 16.896903314719882 16.982787695968995 16.939886349216394 16.824609474062807 16.70444927280192 16.620685563125452 16.550197606319202 16.45555701917152 16.377606473876856 16.42524950395981 16.667146020295945 17.042894599971603 17.383620820533512 17.551753359223767 17.533950430264206 17.4195088563098 17.32928949467684 17.35923234711481 17.50711461153442 17.664895317678532 17.73734674172364 17.733467047990978 17.750115658751866 17.897546827724035 18.229986139694745 18.69166009726841 19.13559041284043 19.453619814998575 19.63242747264426 19.699248892985093 19.696390305519756 19.688475107681477 19.72034185528263 19.752725518065496 19.676697964351217 19.409833284313265 18.93005925884872 18.273673642548644 17.568762735427946 17.029576446046452 16.811401663218522 16.879655720568515 17.114183831173644 17.47236616901615 17.950465423150447 18.470970003145325 18.87683778469049 19.047459218317083 19.03768288853015 19.01987068262955 19.066557042738133 19.05001504952959 18.773662867116986 18.199595646547326 17.522311807797713 17.008985394090445 16.775887386050503 16.723999370970457 16.69128085618886 16.631175234854645 16.61029697915212 16.703140854065598 16.948135390411764 17.350738868720263 17.885661652312525 18.49049076337006 19.061825538920484 19.43484963356563 19.439464685819598 19.071343569631917 18.5389579991177 18.08968136809977 17.840638025771977 17.76072542827167 17.800523589996583 17.96590995812371 18.2165210567353 18.405340014414787 18.37858029199526 18.109533063235283 17.6930727529206 17.236359568079862 16.82227541708406 16.54150467060831 16.433810594140155 16.437311512060806 16.458441818672323 16.43493091009849 16.364220810564756 16.306305093134622 16.36456607448566 16.634511520665527 17.168061351344733 17.911367781192393 18.65193962707142 19.12338323398997 19.223518099959996 19.054407755027462 18.754432570970092 18.376804405944018 17.89367002298978 17.292605551736813 16.66762728709202 16.190454252948204 15.990658167825767 16.0602226690102 16.276684264548788 16.530040410389766 16.799247275385707 17.101962870985012 17.414997059075027 17.668334785521697 17.76929698555001 17.65843014657495 17.386233790546132 17.120798427044058 17.05549876111045 17.26522893771387 17.633334606778774 17.944161918608177 18.039384293584238 17.89510351219745 17.605598814213327 17.28043149616715 16.950095446813467 16.57787006757751 16.170477181775915 15.818222698471121 15.606255500309173 15.55784976306742 15.674394664146465 15.977873183086418 16.48194249456114 17.152477396719938 17.909699497732905 18.64231563814579 19.23300999331416 19.599806550473275 19.73936760678403 19.749488784380453 19.742976381286404 19.72343203902964 19.615746443280905 19.344347878939217 18.2750610191386 17.725537208918666 17.172732326541553 16.74635274930279 16.41372835495497 16.02503689974675 15.538584863715235 15.124353532538633 14.992630511710155 15.176751667262304 15.547897238486454 16.025595687319054 16.64440160974216 17.37300175387952 17.968714301274836 18.156588939462644 17.922688168549676 17.51338971175933 17.18575083983582 17.004173406538605 16.89185565762194 16.83669849076497 16.924415648412154 17.19577183971274 17.57552736302594 17.9048955286977 17.99181981677037 17.755396599397777 17.3755129360501 17.17058032751164 17.262424441515016 17.445427225899348 17.420588541613853 17.098609114536213 16.637773210552144 16.245531396018126 16.02797486116137 16.014843096340208 16.220795497790796 16.656416829032597 17.276181785589756 17.94133934227725 18.48788243211754 18.804577532245457 18.822020296523426 18.493336555562866 17.857022732478224 17.066530085105423 16.296105664069003 15.65201505768456 15.20512661051336 15.047210774194424 15.249193694332904 15.766523768890663 16.425409230044455 17.032397560762643 17.470100476814633 17.68465866441232 17.656969674044333 17.428926739308782 17.120732216780183 16.8538015625534 16.66781246577224 16.54683886081886 16.503008634377416 16.576567233436823 16.77128998129284 17.031918850343278 17.275580505624067 17.43407125955188 17.46288700578236 17.36581945500376 17.224567093797024 17.16581170428454 17.234693560828003 17.3573004931997 17.451216810099247 17.502329040506137 17.569675878074513 17.767910094867442 18.202986536613064 18.848183313511047 19.513678378911603 19.993375175157066 20.17920824398675 20.073625781372275 19.788238216737824 19.50744866219122 19.374870449662268 19.384667589926675 19.383431168715177 19.197998083000947 18.744596927403087 18.07434383906683 17.367837252028433 16.862430554929222 16.69782530243459 16.80937973807914 17.050019962975036 17.366206406835868 17.77064357571127 18.21568682801181 18.558198543479527 18.66889873801102 18.587723266347083 18.483375618710273 18.44471046783241 18.379932140794413 18.12571517799994 17.64032655399657 17.08576197280266 16.712582320176526 16.649560896787175 16.797206306473864 16.957193025678546 17.04080021947413 17.087925812773097 17.167492806450383 17.348240447605978 17.68756843453582 18.183090972506918 18.749807638388614 19.25256301189326 19.52378288247396 19.418508729667003 18.964345185628556 18.393009741911 17.948250444488274 17.721708245461443 17.6783555027157 17.79568321793897 18.0899262977543 18.481608636313116 18.751857219060092 18.68749188760881 18.26293494907816 17.64213573074208 17.02019908018575 16.5278448156508 16.24105351163351 16.155799174930955 16.189841020090718 16.26212784180629 16.322423407133293 16.351482832185575 16.376958945555447 16.470595227406058 16.697679255404253 17.105089135138645 17.682086832857692 18.27627781364213 18.6599293922527 18.744803697368607 18.63975935305638 18.486467875928955 18.317178907911256 18.04441930778013 17.59170933607273 17.03112523433866 16.54827126080519 16.28538799233136 16.238388849942233 16.306268822226183 16.424891339296067 16.609754299616313 16.88067268556243 17.19908194036902 17.486961895391225 17.643397084586002 17.57693021172755 17.286299560341636 16.910947089728147 16.681432608383304 16.74463949694115 17.022104814288955 17.301607522849487 17.431916758387565 17.396750907090958 17.267387432562806 17.100655429279186 16.88245943139644 16.571158491819208 16.206305749478137 15.9086161704123 15.756127136981775 15.745978592256257 15.865172801790395 16.133604574826126 16.56109080255992 17.11749454125434 17.75607439723227 18.405791542180868 18.954536188004084 19.284703835970344 19.35262855927929 19.24912176142177 19.122073202198717 19.02406104565356 18.904081322457333 18.676921887806284 17.555536060426274 17.218805332943724 16.893267531056388 16.676723916702436 16.530506963197475 16.29265529766687 15.899498665111269 15.509563955069554 15.339349693420983 15.45128073772571 15.756789075559825 16.202056900045953 16.82984479150802 17.612578595950392 18.307546334135434 18.6154243616801 18.475541613221623 18.095063943127734 17.733920687008716 17.507644081937475 17.402206562645823 17.427224550050603 17.622058113813882 17.95541629066356 18.315699530524885 18.555512305429954 18.51868174274824 18.16426081349308 17.694836374066945 17.4178116218858 17.430116315338964 17.52918995968214 17.450509430421146 17.127172776461194 16.705470182031817 16.371333149317042 16.218705511010803 16.259249356011946 16.473611348178892 16.84512423603576 17.340619146398954 17.87520588094855 18.340992711989884 18.638075000394437 18.666686294382757 18.35437932381918 17.74120965071786 16.992560969247464 16.287731242661355 15.72287334251099 15.35659407919974 15.284936559614279 15.586393547920004 16.206681301437367 16.96504011381535 17.67837824968617 18.224035636096914 18.5068040817269 18.46387109027602 18.127265216407707 17.651723600268713 17.227521264029317 16.960448981807193 16.847647590382422 16.84710577753772 16.919068615080878 17.02425592813461 17.148959986262778 17.31420032065629 17.506191104060367 17.617579346800447 17.53727824720911 17.290760602721463 17.040443303735834 16.918647188314424 16.938138166590946 17.047555090460044 17.18926112745524 17.35558802826256 17.638804093080534 18.16819383621309 18.934335087521806 19.727036050444834 20.281318487071186 20.420803933411968 20.1279385550366 19.575245566020854 19.05009544782111 18.77511145665982 18.76616322201792 18.833084382045875 18.742838262578335 18.384562840025726 17.827078430908795 17.269432768458852 16.92946106646658 16.90332268816183 17.092806226748763 17.334659574521236 17.572237866804198 17.83739959236552 18.116437911170628 18.29628170730014 18.266592613546546 18.072884034222486 17.880298308961066 17.779609422883517 17.70289968785879 17.52520739412127 17.214833716121856 16.890601234036012 16.74464910303895 16.8803359966283 17.194241108491227 17.475143903307213 17.620070502921518 17.669092665513606 17.70629389869409 17.830150566210488 18.130865506343252 18.61433067474263 19.168779424434412 19.618096326625754 19.77854570946621 19.536292370491125 18.975261297829455 18.36885107090165 17.957740081301043 17.792831008526687 17.80982884039333 17.98605505583725 18.335804331885356 18.76107763670936 19.021555701072305 18.895459722968237 18.371841873872945 17.65115959373944 16.964036153531293 16.45105113625071 16.17146681251902 16.10692098913257 16.181305659044963 16.324525362748734 16.476533463462104 16.5846765178226 16.652592154236807 16.748355452245963 16.924682834188943 17.205239144962288 17.589650107740365 17.981348081298272 18.222084911032688 18.27415680988211 18.26452087510942 18.317672198747015 18.417246424807193 18.411003239595832 18.165380796695075 17.718643188992548 17.243569342802246 16.88421140230976 16.65657917412947 16.504756207079918 16.418793691850887 16.45035109488779 16.625639328716304 16.89888761934642 17.19653181861371 17.42895885923969 17.48538636154666 17.29869516946765 16.942048491285025 16.6384443569316 16.57652499261838 16.717030574149767 16.87925598914375 16.95871308094034 16.974433244280235 16.975722724106248 16.95730266071527 16.86017616314778 16.64181758412654 16.36773112682035 16.17546545396363 16.129504308547457 16.194795271964583 16.329444056221345 16.54267624258392 16.85611028047008 17.271886005877153 17.785160998125132 18.34264137091127 18.802999995280956 19.000780268974847 18.878985732636377 18.564702718606334 18.26442516213022 18.073478217119757 17.94985691706106 17.801573299343836 16.707019823090565 16.650049625865034 16.6641835992607 16.78772807824724 16.939751389447274 16.921867549747006 16.63791249584095 16.23638251275334 15.964152655983895 15.948287453646326 16.152986160217413 16.530304250673666 17.109742300489607 17.879835234291424 18.6330467530829 19.058132319810042 19.014834494073817 18.627875523309694 18.155874783183414 17.80747468385965 17.677555028165507 17.80150811589018 18.138111429674407 18.55282284325862 18.897477029312824 19.059891270200513 18.9408857200898 18.529532814653493 18.01077803546029 17.650811670057884 17.537807252615263 17.519068783546807 17.397098014095647 17.120696062430525 16.787033872234908 16.522560455565216 16.39766545171848 16.420834056384503 16.56296269592625 16.796675557099988 17.10680893429756 17.46924476846253 17.846064670476316 18.15802772938099 18.270509308806126 18.07744313820729 17.619237342893854 17.06519238917261 16.566848803623348 16.16657120690577 15.889851180908604 15.84934268158912 16.16109612723661 16.7901068810289 17.559603097599574 18.284967330837244 18.830825180045704 19.089481389903632 19.002482350261367 18.608953322389766 18.065550362244238 17.584912777958642 17.313337005741463 17.25216163425889 17.302603014827593 17.35420559293314 17.345623182319237 17.32005412653659 17.400676191511458 17.62288515920602 17.82232623034482 17.78044981841598 17.45752220607345 17.02749619997074 16.698750249503565 16.582876662467193 16.673601949695072 16.878352158843175 17.130877557273923 17.495689126194453 18.09941771636801 18.930569533632884 19.772265675450015 20.33948378098406 20.42259643605644 19.989865683715987 19.247816751734906 18.54530138346429 18.15306159537901 18.10475307806497 18.202758154452372 18.205307416002928 18.008792726107504 17.68130860062801 17.383532684822644 17.267818353137283 17.381190298490406 17.62285069104868 17.848754501372373 18.006065412271195 18.124720797134152 18.204671517235116 18.17021209395831 17.959221646288587 17.644105896995683 17.383911273807303 17.253337191860318 17.186326516469414 17.087126023616005 16.949994005029627 16.866810025215145 16.959018264168304 17.276471949690496 17.701400922182334 18.028090937147457 18.168893482819886 18.18688590491044 18.18840766289003 18.285748208815967 18.573910072988763 19.05281710670839 19.587071996408724 19.96282980686103 19.982229103985837 19.580650047247122 18.92358012303915 18.330158178769757 18.01625933293497 17.962695177819313 18.052343787250976 18.250275905390065 18.57335563855339 18.93229565832113 19.11362310975558 18.931904576407998 18.39292402753858 17.687602825515008 17.02689789251402 16.536334110187184 16.274420134969077 16.24354766541476 16.391296493144136 16.643715150252145 16.901808967701932 17.066018596162273 17.130684803883273 17.193240343483023 17.321503944527706 17.507602442726952 17.720764202344245 17.89451714579015 17.953184340317875 17.93469676958017 17.988555302581887 18.2089335154778 18.53006771540455 18.76248899311106 18.743458134133647 18.47143973963004 18.075461270317252 17.6783532294664 17.311680106063744 16.962758130883724 16.667307994589088 16.512891850285346 16.546371887235402 16.727651738025006 16.9908131414735 17.26336932243742 17.433575607843057 17.389443211567865 17.14130581518116 16.874598402431545 16.772131254401067 16.803778602720858 16.81744618522509 16.770522827363376 16.744476349186574 16.799404638886777 16.893313538880466 16.9250572255148 16.832758845892204 16.67983994443787 16.600410496250955 16.649794116780615 16.776983699524056 16.91448536587931 17.054916190116668 17.240585488381495 17.52499862796826 17.940445122567255 18.418221833017807 18.760949668516375 18.762595712156656 18.385107197435175 17.816275416577593 17.319805392534903 17.017712847180984 16.86740926467586 16.78118565618659 15.90127645471387 16.09061156513359 16.450243743404094 16.950487127884553 17.44111048388244 17.673611261327387 17.519853293158295 17.11698532872409 16.742366997808528 16.591031079751872 16.677276759009022 16.948153017251826 17.414832767116142 18.096735125764315 18.848693839325808 19.36506765843691 19.418422034568263 19.02793184238194 18.433496688603007 17.93675835105989 17.751341597741117 17.94328334382049 18.3949153448115 18.878156053424245 19.21978190605995 19.349583745673137 19.21948586750887 18.822490538708674 18.290954929307667 17.837431396807705 17.563871216020917 17.39793917239476 17.2184737670093 16.9807105106892 16.72371586118427 16.513312708960633 16.397771830109246 16.380518000339688 16.422682917331937 16.491952755755754 16.598864171126444 16.788016927363028 17.096164663707288 17.463984380330714 17.721227483129464 17.72938491680863 17.523901031110697 17.259949132651382 17.034413479319056 16.815912396402453 16.595688316449948 16.515285714535594 16.745159056071383 17.285875859216222 17.968247601525494 18.594581823279853 19.017727454060722 19.15578166792661 19.006568071250076 18.636836407192344 18.172996270367797 17.787913620480637 17.621373485640945 17.668748154230084 17.790548501911754 17.82730193216962 17.706270221110643 17.519547383841843 17.477016414872942 17.67287934034017 17.92826260073932 17.95771102311889 17.65754700006662 17.170560066860382 16.72491321014374 16.495762198081476 16.522862095614393 16.70871011049356 16.962351392671472 17.33291137332977 17.93854338414132 18.764789370848778 19.601799881585254 20.16619930518126 20.231586465634013 19.746244295421175 18.917718137387972 18.118012642541714 17.64806310756528 17.566592222516125 17.69517115020944 17.811845254401764 17.824357862830208 17.772361808187224 17.74134381347999 17.800889807255018 17.96316677991262 18.165858485544614 18.328069184502116 18.414838998352902 18.432053020573353 18.363372668367333 18.16087309014618 17.819286887181274 17.442571023938125 17.17360127654272 17.05286087450864 16.993456979039138 16.91430579466956 16.85289702518409 16.91413849838407 17.172187595932876 17.61593081631963 18.098897015804088 18.424603167380504 18.5345137809141 18.5175405199366 18.489807661650953 18.556432483793618 18.803095020220823 19.230910301534472 19.70041675501585 19.97330055548042 19.844234632977667 19.30895267794147 18.621954042978818 18.13265151280362 17.9983377087956 18.10247359938077 18.265811482308628 18.4477618508008 18.684584420668564 18.919800204664643 18.99819690786938 18.793730100464835 18.315468226801563 17.700039031211638 17.104068390347553 16.638580469754018 16.386207700330456 16.392805601671224 16.63383125935652 17.018744861782885 17.393809156182755 17.608619018468872 17.65612151072228 17.67869967158471 17.77919140296344 17.922467163203258 18.021328642934257 18.008422779580705 17.880057292374424 17.749212756243594 17.781454892519367 18.040936295049626 18.441053563560363 18.805989558032294 18.983747986232455 18.936921450715694 18.72635509122098 18.423835151299652 18.052546868347026 17.62054423804873 17.191592564328058 16.88943191911154 16.79634371069269 16.88539562028952 17.08742384992541 17.336392281722883 17.536344104107954 17.57494534874331 17.437348562926054 17.266771525696207 17.2024209209737 17.189018688502323 17.080967491765747 16.878690778362415 16.726410263624572 16.731757627752 16.865701827463333 17.004611522911205 17.049854985989356 17.031780870846873 17.06031205262546 17.18624207624944 17.36159370582277 17.50223310421823 17.57791803738783 17.64708258544266 17.814750468818364 18.14006987492003 18.525857303566504 18.72764428725786 18.527724460985585 17.924491252403513 17.153132325751155 16.505565735866472 16.11121850721851 15.921236013243947 15.855619640060093 15.421150725659649 15.730833030559642 16.313139120060207 17.090873360673093 17.844679388969762 18.280181567525016 18.24585843736326 17.861908250550705 17.41573485085859 17.150289328633782 17.121861362030216 17.271894083956116 17.59125549853529 18.128323542671332 18.810229398735892 19.36530153535045 19.507707478750067 19.153764546241863 18.493359322173905 17.876970507276727 17.6121398674546 17.806492584523387 18.309536630756615 18.842777042022853 19.218291099651573 19.389296579535984 19.332860406592285 19.022846392045178 18.522449334054187 17.988721148711722 17.550698235675522 17.22812013425571 16.97243152742215 16.73852061016358 16.518485377884012 16.34093221519095 16.240965186819924 16.203999540088596 16.166180432535462 16.08828299011129 16.01221249427518 16.05287877340547 16.31365925566485 16.748939764092032 17.162003373625886 17.39268466263328 17.461993630386043 17.492217209244473 17.521942922492876 17.460347624494798 17.276739784053984 17.137143613954766 17.25169790793165 17.6438996817292 18.14534535263246 18.551368167874564 18.73254724157217 18.678385250048855 18.47655328625429 18.22564589919754 17.990552193541788 17.844825873849075 17.869792190929722 18.04807786155656 18.235286765758048 18.262954113155978 18.056751778042255 17.73226488235801 17.551813403929362 17.67034333809926 17.94205541121638 18.065487080089408 17.88382539911157 17.47356897810573 17.024140683511803 16.726201008188244 16.660148397068042 16.75434992419902 16.92087315336725 17.199716901686603 17.706571492130216 18.444709951892502 19.232525061962257 19.79785757378075 19.896143275432756 19.441826716026753 18.61665782353033 17.794382152784355 17.305339492210194 17.24302302328796 17.452767886738023 17.71903816546304 17.932903060923817 18.089447848253315 18.21253518103159 18.318833677341186 18.41057771475227 18.48151227107257 18.532534076863605 18.560386308984757 18.54337556118506 18.430122231678133 18.176163580520907 17.811543974001466 17.458830824898538 17.24109632498225 17.164039723106168 17.11147253919882 17.003536372696246 16.922716514442325 17.012857170333454 17.33123091297411 17.82101163329208 18.311028393567145 18.616595699379772 18.70131694488728 18.65687265995741 18.583625803945342 18.56770324421956 18.695859639816067 18.998962888420113 19.36209210342326 19.53748269840132 19.313139940461575 18.732724892961315 18.115187603520795 17.808682634032344 17.889930721362223 18.146847233308996 18.355072908570854 18.486624005664023 18.611266811063697 18.714158645052223 18.70416390869721 18.512457417488715 18.132444387429995 17.622023174144985 17.079754693709642 16.619372457961816 16.362235706845205 16.39726117353488 16.722165434010233 17.230130403541317 17.718323555923615 17.989753161833413 18.03128472488336 18.024043779536402 18.11258843466282 18.250890500190913 18.298765047856207 18.169506348222793 17.901622105203227 17.6550254673267 17.596204904411522 17.768698939201116 18.09964659157715 18.469585998519417 18.769727651500272 18.94041605305077 18.96954375603468 18.860778703080346 18.610229590616253 18.229985215706186 17.798484686345542 17.467786836572095 17.349325020832175 17.41404832014321 17.562665682783766 17.719622440869713 17.82681971845214 17.828528493502755 17.73669947148489 17.66313451643049 17.681274240699402 17.687769492555773 17.52305655960702 17.19588118408768 16.883972373339756 16.753463796317885 16.831372069142347 17.007934748451085 17.15679552838192 17.264725349540143 17.403403548900407 17.61280793836922 17.849439784659282 18.016395473799946 18.05974661700763 18.04401902110423 18.107779533489317 18.323415173815423 18.57875769700462 18.627157644847145 18.28146613931793 17.573978949796427 16.74137986320042 16.056417547193245 15.637559377652842 15.42756345294964 15.347418931152456 15.444906340117459 15.717344254334726 16.32478450549736 17.181976831224357 18.03220710968186 18.559508138980895 18.599713765084932 18.244355466579258 17.76174776975313 17.417639161638284 17.305350703311817 17.362399271081724 17.54552829311794 17.90636494854579 18.438196653683676 18.940332827840034 19.126917382440517 18.84088682834554 18.193292077107316 17.518561492847546 17.172832359962428 17.3154541380089 17.818257876127902 18.399755809696238 18.856685610023955 19.132200662273902 19.202933301246144 19.02351418634005 18.600679534307876 18.04143591186521 17.49474813799232 17.05900380910483 16.74280981716907 16.49408345991319 16.274488631811614 16.104417301401163 16.017552173210657 15.974831481154997 15.884547238712397 15.707704404909876 15.517731335304065 15.47786749226329 15.72473747309501 16.214359834916355 16.74504888164119 17.156860717820294 17.45010222325058 17.704744595404996 17.92167573924504 17.98753210803117 17.861520447280085 17.70837745427507 17.737356449353904 17.96294906866428 18.208943601805608 18.290629379191106 18.148923321736305 17.884329449885197 17.675619656253268 17.6314140895584 17.726579266517977 17.896153961864734 18.123639283451215 18.375602610122467 18.549699461696775 18.529020729913373 18.26392278261265 17.86898873187054 17.608580797433614 17.66990997235009 17.955343151415185 18.18049438508126 18.15151712258913 17.87056776816239 17.465750098344998 17.120167636720875 16.95408601617 16.938504216725708 16.993470026995176 17.13953607788003 17.489977563803475 18.08421198652279 18.788006546263325 19.350567208596278 19.51099132200514 19.140757108090387 18.377688929779236 17.586568369879572 17.13027999773851 17.138990514201538 17.468827593287084 17.880511404584663 18.219863234466086 18.442538657537952 18.556721721302715 18.579667054977122 18.525589282761587 18.4289787726497 18.352293819484508 18.327413125042998 18.323450824890564 18.260263359287034 18.072208936756674 17.781378908969977 17.50351373449223 17.35306038777689 17.32921924496167 17.302194946134744 17.18424352006783 17.078211455236605 17.15198399632952 17.456499113529933 17.91844401341597 18.372237510328404 18.654369368064117 18.72739753043057 18.64993827304562 18.490055598735136 18.32644441939197 18.273790959678095 18.41739119649095 18.681603659653966 18.816793572721462 18.599306885863765 18.089008334512236 17.621996490997336 17.512738838121013 17.762984865615067 18.102372547447025 18.298576346191446 18.35285065140791 18.36918490620952 18.364787459924717 18.294362945477733 18.12642054652628 17.83098537103702 17.39807002030032 16.889978000848476 16.434790968353095 16.181658045550897 16.241932388889552 16.626827422225155 17.223259613021753 17.797513091716176 18.11574791797958 18.15134522687118 18.11137607685662 18.18194698723502 18.326561072426408 18.37551113784602 18.21992691949354 17.90491281846967 17.595642764825833 17.442414279929846 17.478536059993736 17.663247921434202 17.94618863834383 18.273310794709406 18.58004388172179 18.799891851309415 18.87872887499398 18.789026204833956 18.545329511595877 18.230678035825076 18.006722012485202 17.990512883568574 18.122948179965174 18.24460000300872 18.257350829627214 18.163434949785838 18.01370344302213 17.89169368474963 17.890952113811075 18.007515922100552 18.079394424408342 17.927517557668217 17.547037585960577 17.11302027514443 16.82833985330018 16.78475008759979 16.919055276037145 17.11037123173263 17.31542328844806 17.560766282453976 17.858644987314722 18.158570613525175 18.35927462698186 18.40035944725028 18.34722851838611 18.337978724865554 18.432151104984666 18.522718938122754 18.419144773992496 18.01165329639057 17.358430549106778 16.644174846921437 16.07001144446642 15.722946526285144 15.537657639689261 15.429690700073309 15.925544847581735 16.050241406531036 16.511668284513355 17.250242143748046 18.0163677457224 18.508339961295334 18.56352935522481 18.237384382675117 17.755681581371068 17.38226685128053 17.238921460491547 17.257943484095648 17.344487376257693 17.520452577080935 17.82773777085141 18.164106729117663 18.306599040888873 18.074743338119628 17.49403152053774 16.826179758616618 16.424521193102244 16.497893000699317 16.977605930357356 17.610074566024323 18.171957769025475 18.57092398867918 18.772032327364762 18.729613221214414 18.42637259870512 17.930109738797526 17.38427233878641 16.926850177018604 16.598205682301312 16.336504927392898 16.089154334761858 15.888052905868934 15.774724053786269 15.696766953424852 15.559502038442416 15.3476014257484 15.158561200461765 15.154002710424203 15.444312011690071 15.967930017291776 16.547337167119796 17.0579218002916 17.48870836155623 17.87995652824599 18.218131427187714 18.39768337882463 18.36864703420899 18.26107949015065 18.24572017250073 18.308855620866307 18.271840793149316 18.000687176243073 17.545208854641814 17.125377115197395 16.979366736637626 17.186746981713508 17.61653564872935 18.064242593865977 18.411046628511613 18.613976970350002 18.65101509849372 18.509197674164007 18.19513915334749 17.81149079368329 17.578359686130227 17.66438374383817 17.996015706131846 18.313384787527685 18.406124780433935 18.221767742577917 17.841300333069423 17.444069480279545 17.18897942455085 17.086653160058923 17.057954088738235 17.096882951995674 17.310599342425217 17.771071868150056 18.389302974339753 18.94369849591926 19.17112152460348 18.90325297751858 18.224385991103592 17.482790323009787 17.072104590385045 17.15506476830414 17.588560013599402 18.096901287837657 18.474051859092235 18.646496363819054 18.637271385986136 18.50084269534978 18.27906894544353 18.025819770571093 17.829378351772174 17.74749934056025 17.76350166174764 17.794538092791527 17.745440638168645 17.58797623777921 17.39948458994748 17.297819645783985 17.313948645746798 17.33506072130783 17.264947220561787 17.192472893902707 17.27110503290852 17.53724472335812 17.92672328481079 18.31423902173411 18.56729362915807 18.625036732563267 18.49166651504545 18.21118779202277 17.882641489948846 17.666381132392786 17.695864843982303 17.921631724893803 18.091864734203302 17.970088666998592 17.602296412439006 17.29845868425588 17.32606568178514 17.646265531756885 17.983858422848954 18.128729282249513 18.107638377391336 18.043197966834974 17.96756739161393 17.85637387019881 17.69447736471772 17.440272837949408 17.055424854834317 16.59309338231894 16.185677457141725 15.976940058085335 16.073323290745886 16.492065890844234 17.123938678726862 17.7256019163911 18.04566384320373 18.04739700619076 17.954248852516184 17.988501277730663 18.136777441070517 18.222527161103933 18.11816581098043 17.84872092719024 17.552124847164663 17.3514512280897 17.274763884554993 17.3109556477775 17.46560659744305 17.73293238567354 18.05923059990837 18.357465983291785 18.548087338191884 18.59532698852005 18.512312847882153 18.37011491050688 18.31989615200069 18.468138453170695 18.714542137009854 18.82978847345063 18.685824440283906 18.347711561771973 17.988039654963686 17.78215315455403 17.817773572553467 18.015307886662594 18.156249955535564 18.0514281066032 17.685483973078046 17.211718803150156 16.834242515425824 16.683251817142565 16.749425813781144 16.946407093176667 17.220662505801553 17.55383089040661 17.919351517901962 18.256195026621043 18.478103651435227 18.5438919927219 18.51309787767051 18.48006793570298 18.458604135723593 18.362233147229425 18.105502718785786 17.694849517807047 17.213208335650734 16.7593012176288 16.423526616947118 16.239249444733062 16.13158009441248 16.00983986982765 16.683829682805634 16.64380882064047