# vtk DataFile Version 2.0
Really cool data
ASCII
DATASET STRUCTURED_POINTS
DIMENSIONS 200 200 1
ORIGIN 0 0 0
SPACING 1 1 1
POINT_DATA 40000
SCALARS temperature double 1
LOOKUP_TABLE default
18.122522960225787 17.9160755301999 17.682558940799186 17.430235500254515 17.171166199676165 16.921993217672835 16.70346456092664 16.537901821697908 16.444646475809563 16.434647322562412 16.506060661107494 16.64262232804995 16.815743354384566 16.990175247347622 17.132008528924157 17.21691544637933 17.236184730092752 17.198529301269215 17.126934610572615 17.05152223941526 17.000771204968572 16.99386620835782 17.036344128416065 17.119969319021603 17.22640485386214 17.33316128298015 17.41974697155651 17.472073779160507 17.48400777634817 17.456229396705577 17.393705409098636 17.303465232767383 17.193796821838724 17.074813109104877 16.959327897679422 16.86270808718559 16.800920505918295 16.786988057640063 16.826978210814957 16.917062493546094 17.042953381220826 17.18224402951262 17.309154783860873 17.400339549888233 17.440068119483215 17.42339033856112 17.356635690114985 17.255448599096702 17.141144970480738 17.036333525812726 16.960594465963748 16.92683256038748 16.93890049736888 16.991105323731787 17.069970510148824 17.157992318142043 17.238344983842644 17.299034630365664 17.335210460267902 17.34913131645539 17.34821980234315 17.34223006471907 17.340573405428465 17.350407088799038 17.375554955153458 17.41604426189732 17.468121016633802 17.524853340803066 17.577524274154197 17.61777450856665 17.640010628658846 17.64328068513855 17.63190617680581 17.6146372245616 17.60268293865541 17.60731820840616 17.637724650412224 17.69941401053452 17.79329213648639 17.91534983766674 18.05706770886873 18.206667670249665 18.351150993179093 18.478677237971414 18.580522805680417 18.651893576082 18.691336026396176 18.69919082895643 18.676067215648416 18.622330218635142 18.539010753645876 18.429667328845824 18.302066532695626 18.168522217514393 18.044372270365642 17.94499955450309 17.882483467124175 17.863054328127607 17.886059559964245 17.944488667019773 18.02661068601894 18.118100614305412 18.204102147119087 18.27088041114199 18.30700027227407 18.30423814266603 18.25851429772397 18.1708714438057 18.048059154698542 17.902045759516064 17.748135079033997 17.602186528953084 17.478098277441184 17.386607759348397 17.33557359331158 17.330863597968058 17.37656404364064 17.47375287568326 17.618186140249197 17.798221424064373 17.99456230759786 18.182788053739973 18.338399542298056 18.44282573859481 18.48813675708655 18.47853546585923 18.4279880630558 18.354981406858542 18.276503711551317 18.203400222422072 18.138385154024395 18.076819348012492 18.009500769628524 17.92637913365996 17.820147989030136 17.68886541914372 17.537026170678036 17.374886174954526 17.21632392620763 17.07598981075443 16.966737452368427 16.898174376848722 16.87659899474611 16.905835557379675 16.98795227269975 17.122923115862314 17.30702055165074 17.530714243489275 17.777467313119452 18.024611813576342 18.246516377135592 18.419112680347975 18.52422840777435 18.552414545241042 18.503790392028563 18.387239020232794 18.218594350102702 18.018282139832053 17.808605304491262 17.61084948253919 17.442610018871374 17.315890244542782 17.236337703002274 17.2035507428646 17.212043506846893 17.252465893489443 17.312964823022515 17.380808976007366 17.444304396377447 17.49465047797094 17.52706981050773 17.540643197827457 17.536841997502954 17.517444726558068 17.482879004496578 17.4317893749278 17.361962761129316 17.272092185537268 17.163593397078245 17.041840971550776 16.91651472159761 16.800994827027846 16.710869062792977 16.66173147051065 16.666630851078562 16.73368613334978 16.864380783916122 17.052856113999812 17.286282383827025 17.546248585952696 17.81106807052242 18.05878829150651 18.270411797300945 18.43251561726695 18.538419314256974 18.587514371475013 18.583166696738125 18.5302437864009 18.433351846478047 18.296292162365127 17.870014539657706 17.691387836306614 17.497912818006135 17.29358342551168 17.085382558366376 16.884917785310893 16.708812193538467 16.57683505019625 16.50763393163679 16.513170275231268 16.593807838981075 16.735994434832403 16.913697035096845 17.093596022072976 17.242872679972198 17.337482555914047 17.36838084180931 17.343568523320343 17.2851208972162 17.22211354199973 17.181807433902375 17.181958638432697 17.226544802820104 17.30590232657394 17.400788286251696 17.48869187950578 17.55014302246914 17.57297896895843 17.553504600047216 17.49486824287612 17.404133281093547 17.289840184857653 17.161160445212097 17.02850374109239 16.904439427112045 16.803599895618532 16.740852937020215 16.728012258816005 16.770163009431176 16.86298617580874 16.992219567247158 17.135732195672325 17.267852766992007 17.364861108864456 17.41017340723195 17.39786006593073 17.33367578682691 17.23352171568468 17.11989154648697 17.01717340476205 16.94671561549583 16.9225150776004 16.948381985885877 17.017360272313947 17.113791313547306 17.217633239567434 17.30979058213149 17.376764992341677 17.41321499511987 17.42188829281262 17.41140163140738 17.392999066920908 17.37747750140937 17.37302677136692 17.384127634142043 17.411247688640028 17.45104640763747 17.497035805402717 17.54084614705016 17.57416828751944 17.59108617627247 17.590131366010375 17.575301943168576 17.555614913207258 17.54332653765735 17.5514093201037 17.590966507766524 17.669038124414794 17.786987797068132 17.93961023679436 18.115249003018405 18.297284790233626 18.467066665317823 18.60772171944026 18.707651538357048 18.76238358825406 18.774031940747314 18.748718964010504 18.693325504495302 18.61325101569635 18.512238140968787 18.394086138817347 18.264972828555056 18.1347787832426 18.016416028427805 17.9232871527424 17.86595383841145 17.849381065714617 17.871717122397662 17.924834118390088 17.996219838580565 18.071497749605015 18.136841830142 18.18075851815225 18.19506446984151 18.17527981314146 18.12085141816403 18.035426660229895 17.92692522061334 17.806844297654155 17.688484316674028 17.584519175710316 17.50496525869247 17.456514987756126 17.44333771302556 17.46841478316628 17.534049514396347 17.640723867196225 17.78463748823361 17.95533455411504 18.13515196444061 18.301581013657845 18.432290950310392 18.51115154648261 18.532848440292582 18.504080037141176 18.440743695954804 18.362244524056486 18.28518026861992 18.218655693748815 18.16254568847099 18.108809668286188 18.04504710188546 17.95906190075124 17.843147123884712 17.696967625460616 17.528291065203813 17.351412699214976 17.18383154818637 17.04232078599384 16.939729064722137 16.883513655905777 16.87622402988214 16.91724488936022 17.004524246454956 17.135115501958264 17.304164200984847 17.503042131966833 17.718016318181846 17.93067548854689 18.120397225513827 18.268020568009053 18.359302920366453 18.38700883238655 18.351316859911453 18.258999300598404 18.122050683593862 17.956145763131016 17.778924815489138 17.608023217228588 17.458996657635545 17.343535418143784 17.268334343314873 17.23471909574504 17.238896165900528 17.272699652084025 17.32487015947264 17.38294067709961 17.43554463871902 17.474539971623372 17.496128258044646 17.500431093580534 17.489702938231197 17.466085286223063 17.430047118619633 17.380233257570655 17.314645889480328 17.232447006718807 17.13554361117864 17.029435653441336 16.923218035973296 16.828847496666896 16.759806259571143 16.729294158296327 16.748172878420547 16.823003544718308 16.954532285287648 17.13687379817326 17.357539450368808 17.59844222330172 17.838000210583555 18.05426068246535 18.22851489197766 18.348400438340636 18.4094004338271 18.41418201398898 18.37015584833231 18.28640620481448 18.17123575174721 18.03098417896474 17.610394976587415 17.472012704140685 17.33086189998327 17.185895539159258 17.038260567400094 16.893856434068166 16.76467313526871 16.667660741357583 16.620801696232697 16.637411036407645 16.72067928045269 16.860575424312216 17.034487700278184 17.21179398464108 17.361309003678976 17.459529540754957 17.497089116955767 17.48116299587327 17.432820144294517 17.380106062463298 17.349195442869714 17.356585969506593 17.404793752649187 17.482658215520292 17.569746996117125 17.64303798967291 17.683451692286912 17.68009949425681 17.631209130007775 17.54215603156512 17.422191299285377 17.28171889469137 17.131227574492396 16.98173126294804 16.845605291819368 16.736554058498214 16.668061144520088 16.65057638378906 16.688376964877992 16.77725640940638 16.903977324738676 17.04792530850649 17.18477914986252 17.291412564071685 17.350827444530587 17.355844390810187 17.31060500680245 17.229558301540685 17.13425157333285 17.04868669993534 16.994188221356378 16.98478685047756 17.02414137945872 17.10488918611387 17.210819264834313 17.321393806927894 17.41725383215387 17.48493581899344 17.519373682702344 17.523693947343926 17.50684504546791 17.480251692921254 17.4547295646804 17.438433202426992 17.435960983214606 17.44826609998085 17.472939144785787 17.504693735687532 17.53622795111389 17.559729549875208 17.56900926304431 17.56175842195821 17.541104718230628 17.515764538343134 17.498619486817258 17.50413492405964 17.545327737710302 17.63089848199757 17.762911509703518 17.93534002211699 18.133936477745515 18.337956557519234 18.523903506740414 18.67062558672816 18.764207979745954 18.800788645167394 18.786088576794473 18.731882623799372 18.651098386431777 18.553855276022087 18.446134166246022 18.331247133481103 18.212759637780476 18.096877018848698 17.99283028309849 17.91105045637041 17.86010596727284 17.843870243676307 17.860082881453614 17.90072019754606 17.953865219688183 18.006336341865406 18.046235241398662 18.06475339554366 18.05697047739401 18.02184717372981 17.961894416154873 17.8828682402384 17.79338605141577 17.704019472364312 17.625603250997422 17.567156206733483 17.534380236974215 17.529594504836 17.55310961287219 17.605027645320956 17.68603962453013 17.7963448808876 17.93303352665398 18.087417127909983 18.24416773804387 18.38345545186005 18.485832541520058 18.538104724156472 18.53767669349658 18.49334887149064 18.422089227660038 18.343087402190932 18.271462256583778 18.213874657896973 18.16727331078844 18.12077044921757 18.059759706132706 17.970974320416556 17.847095893797388 17.689663444860948 17.509443873464917 17.32413642801082 17.154138314292656 17.01777420064691 16.92757655787354 16.888766945737043 16.90016406881894 16.95670774049856 17.052128227977672 17.180378965544243 17.3352892904389 17.5090311541605 17.69074510055183 17.866558120145235 18.02132984477672 18.141393486607818 18.217026045998413 18.2436891349859 18.221914930121635 18.156421072694528 18.05516042100326 17.92860413737055 17.78907351613499 17.64978973811831 17.523537460695227 17.421148651067544 17.35012745983061 17.313644537679593 17.310030215604513 17.332926566730276 17.37231544981445 17.416494899458716 17.45465435889908 17.47922742275948 17.4870678017644 17.47892858126523 17.45755904474435 17.42546393896071 17.38350356436054 17.330949982444974 17.26674889691794 17.191154089995436 17.106918330839648 17.019676718722966 16.93761242771138 16.87065508980113 16.829374388304988 16.82363342697605 16.861098516989877 16.945796589754824 17.076937910647196 17.248174254359096 17.447455774538568 17.657735116538895 17.858804269297007 18.03031241391616 18.155457198028742 18.224258933507247 18.235185315902253 18.19444961336179 18.113317363278497 18.004602190789736 17.879675204984263 17.746744218207933 17.377708925941736 17.286825415491634 17.203741589607066 17.122160800567794 17.03724842353382 16.949089255761777 16.864970848921608 16.7990078910655 16.768583974224544 16.788552049747242 16.865260990564824 16.99268453397137 17.152230058106735 17.3166003463198 17.45678870310524 17.550201529191384 17.587312507925535 17.574480395296476 17.53173523601588 17.486126142844707 17.462890102316315 17.47749617862318 17.531210861359618 17.611446684066042 17.696405231705512 17.762081904900757 17.789058587657912 17.76686184973248 17.694845240995143 17.580063979283505 17.43376110906074 17.268325427930133 17.095849568509284 16.92821801294119 16.77773913419792 16.657182407005394 16.578621675943577 16.55125621070788 16.578930104051075 16.658226995114603 16.777867171298283 16.91982209606748 17.062156313109703 17.183134885431784 17.265687956425083 17.301087247658387 17.29082540424161 17.24618293636293 17.185598315818456 17.130462231360365 17.10023745042914 17.107940728649126 17.157073636643386 17.24093464203207 17.344696042330344 17.44972296990901 17.538736759720088 17.600087715381463 17.62983122480163 17.631265356244857 17.612573186979606 17.583764509763704 17.55406462618718 17.530389855308734 17.51689361647796 17.515100333724245 17.524087308524134 17.540519572552387 17.558829364087536 17.572077670700715 17.573792959325612 17.5604554635511 17.533709962425867 17.501287374522693 17.476097312527827 17.473693986186838 17.508840892672335 17.591979276524768 17.726216728993098 17.90534103093717 18.113457483970286 18.32688923826271 18.518567817285472 18.664170510059257 18.74816476648261 18.767450797661887 18.730984092969514 18.65545482625523 18.558943765172867 18.455398709006023 18.35220523177473 18.251385274754224 18.15307974844471 18.059019356271165 17.974080889270883 17.90534815658215 17.8594703022233 17.839807598476206 17.844692420969743 17.86742855015461 17.89787760357361 17.924949939485884 17.939120025944053 17.934210600686427 17.90808565204151 17.862403936089038 17.801923582780336 17.73377405917047 17.66670164710089 17.609964759483688 17.571703882702842 17.55719180963125 17.56785816749044 17.6018254028797 17.655841779216786 17.7275090611789 17.816322717541784 17.92262669951097 18.044841338126744 18.176515496384468 18.305157536348116 18.41410265430813 18.487155529613872 18.514175260010834 18.49503364414649 18.43997303942697 18.36605005817499 18.29115237200956 18.22802948780579 18.180493245084335 18.14281378804533 18.102119821793536 18.04282551587944 17.951787891951543 17.8228458698671 17.659514294158136 17.474995545288188 17.28939452163412 17.12492380693023 17.000613723823832 16.92825077690549 16.910810231424602 16.943660161530985 17.01768846814749 17.122759179668055 17.249942231657148 17.391802460822728 17.541219064032223 17.690021958540868 17.82867301375452 17.947368287655245 18.037916630374617 18.095273523382396 18.11795328487248 18.107367807251464 18.066792584171463 18.000700265195157 17.914710214400337 17.81584204214049 17.712547708244188 17.614185393076287 17.52993363470747 17.46736652762406 17.430983701572366 17.42103944126539 17.43309871167879 17.458727652729014 17.48741872021366 17.509280193898046 17.517502215083628 17.50955240379426 17.486615561343402 17.45170601626068 17.40758256164166 17.35561209508525 17.296047657259777 17.22929481556176 17.1572503751901 17.08396934359288 17.015487902237414 16.95910244125718 16.922487711730977 16.912835562891985 16.93600522126424 16.995658489743423 17.092433025955057 17.22324419746491 17.380796868764925 17.55344706527313 17.725712470381882 17.87981650458094 17.998414385480142 18.06805278317476 18.082278981351564 18.043138177658047 17.960343321027153 17.848419668049424 17.722980838589788 17.59744926436727 17.4809905082159 17.201763831242882 17.159170682027074 17.132060307529528 17.10940096845054 17.081009602593348 17.04175652926843 16.994676087020668 16.951282749128836 16.92838866713848 16.94228025308328 17.002352683874914 17.106595152283774 17.240652182280463 17.38097542943827 17.50127455748942 17.5803738978019 17.60894069575548 17.592670003728998 17.550558416174386 17.508634305977125 17.49125643841343 17.51305433645426 17.574312522053486 17.661231937889838 17.750653225785253 17.817267255287852 17.8406491187823 17.809827462334173 17.724317486606637 17.592053190272676 17.425780105463243 17.23972149437154 17.047677195651694 16.86262585372336 16.6970505974177 16.563019378821814 16.47145944243488 16.430667250106296 16.44451396782928 16.51093436938935 16.621233200035462 16.76061876849978 16.91016338397983 17.05002700619383 17.163311085996277 17.239548867419472 17.276825664746465 17.281908220456703 17.268347250500618 17.253026559371754 17.25194404760663 17.276184745448933 17.329126576910475 17.405773785984138 17.494560848460946 17.581081428173825 17.652393963109738 17.700335540214645 17.722804420130657 17.722937727847917 17.7069676086792 17.681883868055337 17.653805205918495 17.62738552908821 17.60597642974526 17.591913390075614 17.586358799708222 17.58860074242182 17.59531752545092 17.600659394776073 17.59774988788303 17.581425022746288 17.55118355178513 17.51299620348478 17.47905136191443 17.465398777639848 17.488215470457423 17.559686076079345 17.684355168726047 17.85664290100685 18.060231613225522 18.270029700314854 18.45697628089898 18.5949007459592 18.667411495713356 18.672183675294573 18.62069395410445 18.533318864378817 18.4318560795826 18.33272324337426 18.243605764213445 18.16443801488941 18.091427422608696 18.02158587707682 17.955467529661778 17.89715281088578 17.85204524549648 17.823947694419285 17.81289174812654 17.814571030912962 17.821434858887777 17.824874555885202 17.81762680347692 17.795563533946268 17.75840558742352 17.709424696401154 17.65458127064975 17.601532450873997 17.558598775947516 17.533487297994657 17.53170247751346 17.55508384406556 17.601302837880933 17.66493280442663 17.739855719271937 17.82182743176654 17.909692466652174 18.004352254475442 18.105864098848336 18.210260777284674 18.30809823191701 18.386026052012923 18.431111493414377 18.43604489520512 18.402653845018676 18.341847464693213 18.26985787439232 18.202427484302937 18.14940027776541 18.111703506890546 18.08146902493764 18.04486435411896 17.98656522188599 17.894644212183543 17.764687814919032 17.602070516379037 17.421633515455778 17.244659148752177 17.093889551302947 16.98807499574092 16.93779269354255 16.943867072951434 16.99874579450067 17.09001741737802 17.204430963781576 17.33074092370467 17.460516063571667 17.58726555973132 17.70510929609067 17.80821359851498 17.8914004724707 17.951354166739655 17.987411170043206 18.001287810017164 17.995914832519006 17.974162869868643 17.938239605504076 17.89001201094932 17.831903043251017 17.767731178993614 17.702975103865754 17.64425138944075 17.598075456166896 17.56919036878487 17.558950926335758 17.56440871668114 17.57867713194642 17.59271600659863 17.59798138188768 17.588837960523424 17.56364836191777 17.524126276719663 17.473503100346463 17.414694439807317 17.349530930512888 17.279325567224312 17.206157768937196 17.13388390167484 17.068222736837217 17.01595259594312 16.98373977180764 16.977120118489275 16.999841178367525 17.05349082295411 17.137272372659236 17.247852526103692 17.379254479192426 17.522784365410693 17.667075750067582 17.798539416974286 17.902629991732162 17.966133218755264 17.98010270577242 17.94245592518055 17.859063898597324 17.742685723918967 17.61005370282927 17.478195803928156 17.361195508315372 17.26806491415396 17.10283312729641 17.103247387234248 17.122794205799 17.146891894687222 17.161388730434997 17.15723585636552 17.134181746908737 17.101627573254525 17.07579851406754 17.074012284191102 17.1081414977233 17.179709609249482 17.278408156624938 17.38461957769325 17.47525496531959 17.531159233733757 17.54369609294875 17.518151267959915 17.47248005530445 17.431538863968054 17.418694028425143 17.447798693971738 17.518417990734587 17.615891370884974 17.715942114128808 17.791907606643306 17.821921078541177 17.79373246979323 17.706050192285627 17.566743155327835 17.389326811508372 17.189440234082863 16.982491254540943 16.782711818517015 16.603096343615924 16.455455158827743 16.35006250451036 16.294795925280866 16.293963725044065 16.347140851573837 16.448385968595684 16.58625359200271 16.74495605402546 16.90674409152275 17.055094491374483 17.177863523793985 17.269468066308004 17.331466154165348 17.37142760136512 17.40043829800356 17.42985804920677 17.468121668955465 17.518473518045337 17.578409543224016 17.641087871565183 17.69815391355062 17.74275346606367 17.771452875158985 17.78443137832902 17.78424727256779 17.774125992037828 17.756751269178626 17.7340568950816 17.707864799538232 17.680730429986685 17.656228323626713 17.63819118741858 17.629026487064305 17.627921955178074 17.6301105984248 17.628057090352236 17.614485290553084 17.586098261472763 17.546326679892527 17.505820316622657 17.48040131068275 17.487176630659206 17.53995930952282 17.64507671495577 17.798428074355932 17.984584997077917 18.178677133695803 18.35134836480306 18.475989363129848 18.536128344056603 18.530149523446305 18.471142576085878 18.381645276413696 18.285395696815293 18.199630884403593 18.131091385690233 18.0769202796531 18.02923781371676 17.980667097484933 17.928156538218598 17.873778614094952 17.822843598106314 17.78076581206964 17.750306630008748 17.73029054966137 17.71608489136874 17.701417189827175 17.68067772973758 17.650805292785808 17.612174841409654 17.568432543452932 17.525644112836538 17.491177415778864 17.472474227759633 17.47563130343852 17.503837733511364 17.556147912242015 17.627361880924774 17.70950517434985 17.794563406360535 17.87724881726922 17.956302147485694 18.033460865704942 18.110483116486154 18.18581718437191 18.252926655108514 18.3015713446835 18.321772766142068 18.30859352142284 18.265204372037438 18.202484886881503 18.135197918283133 18.076509272420445 18.03327818087293 18.003892381681908 17.979091001160064 17.94509319502052 17.887883724078666 17.797546071899525 17.67169779965855 17.517206756354117 17.349586952998216 17.18997112859098 17.060297430175936 16.978048601316377 16.95218858799643 16.98162869676448 17.05665753860255 17.162612546745176 17.284186910264783 17.408644255912144 17.526974160879263 17.633240940684672 17.7232968050437 17.794074876549356 17.843898284957426 17.873277460033563 17.88524159937339 17.8846169070161 17.876464056462403 17.86448958933964 17.850253784377152 17.833495837964474 17.81329224912739 17.789420335635814 17.763304164501186 17.738139363239313 17.71807902967636 17.706679181633078 17.705144463235634 17.71116154312318 17.719027871493616 17.721253360563946 17.711030792476482 17.684413851580107 17.64113628006573 17.583774320382275 17.515937468103328 17.440716167579275 17.360339067389194 17.27709128407578 17.19466759789413 17.118895269113164 17.05726675156015 17.017520212799052 17.00599654515231 17.026430708933365 17.079420677204947 17.16245511779055 17.27027098027512 17.395365509406545 17.528537191019115 17.65935460173802 17.776555716854126 17.868590206135103 17.924662299360282 17.93647504285384 17.900386713560657 17.81916380523626 17.702387780665298 17.565047706577595 17.424675451920837 17.29800260863617 17.198128484142924 17.13267060040411 17.087754427852154 17.12172114608564 17.17379594636037 17.227443579550446 17.26642391773249 17.2795668205468 17.264705769823223 17.229838428106124 17.1905939409208 17.16472800032724 17.165696291868468 17.197701529896673 17.25395460830208 17.318712188495347 17.37245840097618 17.398654198822406 17.389903014303442 17.35134720005064 17.299817339053657 17.258675316084474 17.249963076397684 17.286641542964077 17.367759928589127 17.478249787372256 17.593217582595678 17.684955466013555 17.730098082273205 17.714650634969143 17.63572772475998 17.500203843501687 17.321497720698815 17.116031421306953 16.90052099045967 16.69050200503942 16.499826204903574 16.34058070703388 16.222967859902873 16.154920491990538 16.141421324452264 16.183626998754 16.278046290726724 16.41618708213446 16.585121095640122 16.769170541107002 16.95244560855287 17.121528868541233 17.267499483548796 17.38676782680852 17.480631440975404 17.55380451652397 17.61234834844852 17.66154874974744 17.704391318271238 17.741212370707427 17.77066428466377 17.79143981346989 17.803708078764156 17.809363693209313 17.81096216488756 17.810088961458945 17.8062765701285 17.797225706741568 17.780294626348002 17.754502012789676 17.721995625265095 17.688132387613553 17.659877752876767 17.6429861429762 17.639122339932527 17.6443770779344 17.65021687432471 17.646827487379777 17.627579427196167 17.59269024783905 17.5504927583906 17.51580597317711 17.50605480967721 17.536397766559713 17.61511888606992 17.74028926310593 17.89855626601541 18.06681593618257 18.217065085217463 18.32365922480445 18.370849311686126 18.357685491606706 18.297947573270502 18.21473871839059 18.131852503372485 18.065607365441217 18.020567403266334 17.99056159496715 17.9638374264157 17.92946674099822 17.88204783928705 17.823075635561427 17.75913593761546 17.698367614030087 17.646988328978555 17.60723007384497 17.577201018181487 17.552377822581548 17.527890148729707 17.500617015639854 17.470384562841367 17.44007468415825 17.414910450482477 17.40131265611132 17.405544377401355 17.432185913623687 17.482599434117873 17.553892975648676 17.639083747359066 17.72883165538935 17.814313784154734 17.89001880190823 17.955028646285907 18.011976756391142 18.06407599863678 18.111760535242862 18.150896348860766 18.173828111339922 18.172992945733377 18.145271318031444 18.094639799874752 18.031512106688538 17.968956685331186 17.917636241586127 17.88182227473831 17.85803492605524 17.8364589576175 17.804221703742552 17.749320104995714 17.664223715015297 17.548487353231515 17.40985325350705 17.263437223052087 17.12891066954793 17.026161762762307 16.970540511729332 16.969137697828668 17.019358594014488 17.11028906789733 17.226267361483742 17.351170915369696 17.471723376003673 17.57880549450109 17.66694070692508 17.733067168520805 17.775798786314017 17.79563520927266 17.795627294429774 17.781562251514178 17.761065819045328 17.74179099932761 17.729476080132837 17.726727976655386 17.73297486574186 17.74547275103127 17.76085554844399 17.776590251022984 17.791780805606937 17.80699344522972 17.82314322436736 17.83993624102128 17.85470374731198 17.862408932138912 17.85703923821829 17.83377366501042 17.79076939307278 17.729575666754776 17.654018400275778 17.568371627196427 17.4760661516429 17.37976024642881 17.282605364509703 17.189692088168478 17.108551176947422 17.048235738691492 17.017391841940377 17.02221223065644 17.06503512563567 17.1438625100201 17.252657833269954 17.38214817776111 17.52090213399093 17.65650006674454 17.7766220765601 17.86995077234228 17.926963046100965 17.94083143482728 17.90857069136263 17.832219683231685 17.719485707783655 17.58324175911291 17.439690238453732 17.305645122620874 17.19577877880172 17.12053707631743 17.08490052875389 17.14843683078096 17.20503278285357 17.2741476190987 17.338921522757865 17.38301190495695 17.395087696667705 17.37261248734457 17.32302554800349 17.26141168382655 17.205346082040247 17.168872048861957 17.157861664854384 17.168335272770186 17.188184383659884 17.201677676494253 17.195362370125267 17.163526983322935 17.111338268744046 17.054286519617534 17.01373409281855 17.009853114103205 17.054406565452453 17.14603525065798 17.269772008177757 17.40083595028984 17.51116035140525 17.5762858719583 17.580459801683578 17.518768335801997 17.396351259981007 17.225677840945398 17.023201265171565 16.806468433596393 16.59220272768135 16.395337856212297 16.22868193006332 16.10284195792498 16.026113161048446 16.004136411769547 16.0392644372633 16.12979734304027 16.269484867487407 16.44776125100213 16.650942478403053 16.864166477365533 17.07348902498959 17.26751657528281 17.438247235350776 17.58114454748435 17.694650548918986 17.779362491709183 17.83712539472398 17.87038915656492 17.882159633267843 17.876534170046884 17.859271458931158 17.83756326476093 17.818542441307052 17.806952783917446 17.80319062376673 17.80297578539176 17.799125429892793 17.78479336099039 17.756777495521337 17.717450164864392 17.67443699700598 17.638038210026433 17.617255908761702 17.615932011807494 17.63066162343702 17.6516061937179 17.666149497886142 17.66401838190034 17.641755874910586 17.604730660736347 17.565995454697905 17.542569218413984 17.5504575171863 17.599790326573874 17.691188307578926 17.814255548821542 17.948944806686022 18.070087585148563 18.154352585558044 18.187568080101006 18.16953155804198 18.113937682136008 18.042989237713858 17.97875465223645 17.935003821811794 17.91305567131913 17.903159854689633 17.89025531899993 17.861083440561256 17.80946289301884 17.73787924188863 17.655453044365196 17.57380438491572 17.502807066543106 17.44780797795464 17.409002673921933 17.382747145658627 17.363947357159805 17.348458432412436 17.334660333189206 17.32389375780371 17.319930221237534 17.327849763987835 17.352607898591152 17.397451819713417 17.462441217921306 17.543587465045096 17.633215009443518 17.72178961899316 17.80072637931969 17.86501368248329 17.914348016312722 17.952068476906703 17.98228512467122 18.006653165934846 18.02262668552402 18.024379254821767 18.006118084280274 17.96603510584639 17.9085892592567 17.843655921470123 17.782848260761252 17.73488147414715 17.702233703266437 17.680446416481566 17.6599686001888 17.62944215868881 17.579170746327527 17.503933397406907 17.404752803751983 17.289410397078903 17.171519651297384 17.06809635387 16.995937164152934 16.967622550661453 16.98832048688064 17.05451024854673 17.15515994602888 17.27494001982763 17.398179127669184 17.511992041994567 17.60757536380978 17.679774331579246 17.725954329387072 17.745344182388198 17.739325879974665 17.712207016231513 17.67153448127669 17.627275054256256 17.5899133850246 17.5681551473691 17.567106705309104 17.587537112731468 17.62635994607213 17.678044591042394 17.736391922199576 17.796013769952925 17.85297108114929 17.90438712349629 17.947384447111403 17.978134285674624 17.991818811246628 17.983764335807837 17.951190433011206 17.89449992833127 17.817237396618804 17.724694944152272 17.62206815260004 17.513388732487446 17.401920438000676 17.291668889555545 17.18886450820131 17.102283798929967 17.04202531448863 17.017268980330353 17.03400133190193 17.093502206078846 17.19186659316695 17.320418190921693 17.466750551458585 17.616186390830514 17.7534753030006 17.864509061244828 17.93782811658827 17.965797010206217 17.94545894494312 17.879086910245064 17.774295743261586 17.643430298155366 17.502024998090484 17.366491513906062 17.25160971297416 17.168526182626824 17.123645671893577 17.118256979922833 17.26344600113165 17.3328343306085 17.405543540484565 17.46568571839472 17.498486675067916