# vtk DataFile Version 2.0
Really cool data
ASCII
DATASET STRUCTURED_POINTS
DIMENSIONS 200 200 1
ORIGIN 0 0 0
SPACING 1 1 1
POINT_DATA 40000
SCALARS temperature double 1
LOOKUP_TABLE default
19.305286335030978 17.927080971298647 16.60334254237839 16.209689276793178 16.26900733858847 15.953735773364183 15.16016243548954 14.241742171390653 14.165754620540033 15.143050630558921 15.83209489643903 15.992687963559183 16.137292574459646 17.368167991449628 18.718147383875852 18.524126478866513 17.25929298288316 16.0554287829083 15.85142249010625 16.46357733366833 16.645284507756763 15.94046701923564 15.42161427345054 15.630539485189383 16.117178258021905 17.00907058383643 17.82767917833584 17.42932396904498 16.047128732820102 15.452268302613918 16.471104706122386 18.010342285101878 18.331667151053995 17.180201551870987 15.838887159442088 15.251265721876928 14.940904915025987 14.8066589176715 14.814929755135045 15.27373127871441 16.59457864945549 18.062088021006982 18.96584011810828 19.342730128011837 19.669446132472213 19.53185210452132 18.540614493051446 17.329028234488728 16.339849426191034 15.43806312380433 14.615793138090526 14.095019333950589 13.93673798500898 14.575156427875093 15.713210469646398 16.373278207777783 16.38978691016448 16.33576142171093 16.324686710641327 16.140254130945696 16.156962345591896 16.415787640715536 16.563112880934295 16.08114856401147 15.517139624807047 15.480780595343377 16.02421297904589 17.183870416193027 17.655400501375205 17.444585248299973 16.85691288974427 16.570421077642848 16.484563588446292 16.975880954587904 18.04517399396574 18.505390164401483 18.254840937502248 17.681973185854698 17.348075049697233 17.347911968486567 17.79112091929288 19.05139876522412 19.901249481655455 20.062564470571385 20.214626032820252 20.57183335115798 20.677139362492984 20.55501224545697 20.523804490199744 20.74691172292784 20.491917962982335 20.122635826749992 19.67690798326791 18.871194492712057 17.489387519040832 16.0048363856892 15.699650280130086 16.21710356759995 16.432202212173983 16.948930389317056 17.79345297557993 18.670308930110366 19.662128633512562 19.797931712657345 19.187872304651926 18.804962265184056 19.083464006439428 19.75927779167819 19.720711977978112 18.403870000684805 16.658351194675276 15.542944880329262 15.56648934735857 16.0486338522831 15.980057052348782 15.816167505782635 16.056233351811724 16.36965421291243 16.734922209379793 17.23338945756319 18.006236333420187 18.558632681900065 18.975626303968713 19.70402963382381 19.800925264101565 18.87432119339877 18.003249596228695 17.365766214676434 17.30952911591089 17.29742848870793 16.821345904927025 17.023060454390066 17.93153350942556 18.858535378548027 19.00067913364563 18.379533065522413 17.617825180549932 17.062602465730144 16.164315276587885 15.737460275464509 16.128952616953466 16.360103595956094 16.573117813282465 16.509017967130607 16.350343510878293 16.081185161600885 16.056795181776245 16.001776747125078 16.476442550418746 17.85290327080871 19.60139285927099 20.43108758405804 20.100177821393448 19.53730528269238 18.851445320362068 18.33590859908055 17.912795449081983 16.97426516684612 15.809650383941271 15.046836933132269 15.08313809910262 15.908798543108173 16.602512004460653 16.87584537125636 17.048560895323757 17.561854898776325 18.038944647130695 18.509321585010454 18.70082586823574 18.02230713128924 16.885230728482952 15.910511857437818 15.67533683905308 16.50169111005961 17.6896087735677 18.570873438552525 18.88923012089115 18.190040044696396 17.38363833826165 17.200089473798656 17.415253438723877 17.12264774603995 16.24435508785739 15.482104841023725 14.948077136047129 14.642052453540243 14.533191967349023 14.829053662104922 15.513512804947641 16.441593904495246 17.62273074849607 18.671900901412183 19.32452246232491 19.999932489534533 20.323008916851133 20.167655184860198 20.399061519300655 20.398714270186336 20.07824139962714 19.867448790671244 19.033673105923747 17.712062824764523 16.475538702338657 15.765271107425793 15.74774897819189 15.44362623261125 14.429522299363203 13.71760299295583 14.096761402509374 15.190872215302965 15.615849004305236 15.489332688832247 15.780754650672835 17.381808574074284 19.119871182723966 19.038244622843106 17.80756314673572 16.81896613947705 16.945901470509998 17.80577445432805 17.802328233707698 16.929770723261928 16.52730882313046 16.899961723800153 17.41147885520653 18.34153150159906 19.0136525638667 18.22084991509627 16.456881175917243 15.821616382246166 16.88079700600078 18.218200653986333 18.303651136485623 17.008860574666517 15.511801295768755 14.9687989778381 14.994092254070837 15.355845590689212 15.6913302385842 16.17630458551525 17.289466217280538 18.566134767891967 19.4515964725217 19.72310502344545 19.719696460332635 19.38386801748337 18.351300612074308 16.925995810461156 15.664609848052965 14.688616185232291 13.94445749517743 13.572308995463096 13.823490890563958 14.848192926274006 15.988275489628196 16.67247954494237 17.248101045271007 17.823875409455887 17.923431453592624 17.165933289001053 16.504266851578286 16.434428759875786 16.476142630003892 16.13993391935349 15.872655493288432 16.124507998667777 16.604737765880664 17.05638223011472 17.011087419286223 16.98396587772907 16.940954694424804 16.890111731841767 16.422263672499245 16.643185453136006 17.741417320278188 18.191003721823638 18.016149759373338 17.776305310073422 17.531657410564197 17.04268696263439 17.176602476068005 18.639824249788024 20.06387702476106 20.884978066761843 21.230633122019416 21.05606648039668 20.300980191780198 19.553930941402477 19.318999100170704 19.7858320711475 20.191816227965166 20.34865494387697 19.73955559572362 18.40569713251875 16.89750535579639 15.623914698939409 15.580094886486359 16.092954597092803 16.099684471063068 16.206673895821197 16.701388853670377 17.607027583749844 18.821096572933623 19.223278140644535 18.804217759893906 18.518906691911 18.645171786937837 18.970753307224204 18.86746621330553 17.648766628807607 15.922282824870933 14.836381970599616 15.227598549063877 16.399163908777577 16.812340346723015 16.763197135097037 16.996933423729 16.9902232016616 16.753412804488253 16.852296929196363 17.497432646969735 18.11971169324016 18.610232727103053 19.418848638048654 19.578284067661382 18.525615141473722 17.59252547957364 17.17089342714602 17.196358822878217 17.11320392183087 16.78812876142422 17.29703774752316 18.517611608611244 19.75311306060099 19.835566539172323 18.61832395410474 17.246008304820528 16.329151051327386 15.504837298225993 15.361810308317926 15.723497433108635 15.732910149511019 15.667563294196713 15.642279443983435 15.76252740687717 15.769785072940728 16.13839761144909 16.27243129254461 16.264801982205523 17.142526333867934 18.69378499962861 19.516096675926956 19.208953259451828 18.58333908962812 17.826992764154344 17.665262568602834 17.711793392887834 16.95093169548086 15.807541940662954 15.123330971443476 15.22534848716177 16.012014363716123 16.419713169232793 16.394646842319293 16.443131395543887 16.86291915690787 17.2766087530076 17.892582941154135 18.54607030724125 18.37443746525667 17.588074086882166 16.26742344372294 15.13087868160416 15.381704365901754 16.362118844148373 17.162028264240462 17.650141978604456 17.43926379265466 17.1129809486839 17.001636832137223 17.193170122365196 16.785687454148704 15.775104131960138 15.334272329723921 15.241493050539756 15.092296249485408 14.921440974842637 15.242479274145891 16.110057599378262 16.746420104663237 17.269773456694878 17.885247683949306 18.57649438522499 19.40508841921084 19.72859100843163 19.359065265361195 19.355807395124998 19.402390351228387 19.400140093382497 19.51680242929556 18.472117371039957 17.61263375961103 16.673023794827827 15.999004750328128 16.256678298487458 16.17663866556353 14.990386919455766 14.098335181558122 14.196541701040214 15.011198577199115 15.438771635143585 15.430632688172631 15.949383612336998 17.617050109453068 19.39358423565393 19.47713150507206 18.589366785106815 17.78193421617115 17.68071824242691 18.23537950045641 17.992998871446193 17.383428814463052 17.495138218062547 18.22450825387317 18.81584831830551 19.528529271695255 19.825772308944714 18.79837741179898 17.155087839370065 16.7350052570871 17.647108550351533 18.498978785321597 18.317727142451755 17.311241839978205 16.30738362856441 16.04456390194767 16.088317415582164 16.484088432902716 16.92209286373296 17.293207528327045 17.99265333356885 18.80066972470853 19.35573374382402 19.58589080294386 19.603025525988432 19.128633945748252 17.963324875586963 16.426721894194692 15.250563899597294 14.589015270098951 14.110218846658025 13.944166256304966 14.61999527540069 15.990739442837027 17.08034405545951 17.796643428830393 18.793199325110436 19.69301253318483 19.830516582876225 18.78978581881101 17.462529580929317 16.730993666236582 16.56205386466102 16.50343619837241 16.572987662969616 16.958155945367352 17.24720283846352 17.15712187261856 17.10964976129213 17.649103197402503 18.146329047303876 18.043729629454752 16.962719284739727 16.34548318813635 16.661909285382205 16.866745656456303 17.09089086160207 17.520174624341404 17.637806492279577 17.18289929505884 17.30211470718205 18.698491527739687 20.221784466438425 21.33641641981501 21.68935232238003 20.89660380213702 19.335109246338824 18.09797184555697 17.687833420074558 18.388392782999944 19.40722503465198 19.91233453679434 19.21922799121466 17.703021370220405 16.309424853167904 15.535383271911208 16.06968967894903 16.971959335989578 17.121475863275045 16.90641308158691 17.010016985287162 17.708180673431798 18.697234893054535 18.745063123380874 17.953253116820235 17.57887097873102 17.664467489937103 17.735712071298366 17.72024685050079 17.26295750813218 16.38589915540807 15.684888989118148 16.068066096132448 17.287464702548043 17.886235478101565 17.870142217173576 18.02231591241999 17.854055076743773 17.38644995482454 17.38783446089454 18.13015624873998 18.995343017554863 19.666750654492336 20.454961080736307 20.50831941236378 19.213145014831046 17.874442947217418 17.337527844579583 17.42340437824826 17.472849608494872 17.417654174488035 18.071012661408158 19.277922143243337 20.46109961983712 20.39843591692425 18.946463803176055 17.373716846062333 16.346106770733673 15.636674736164744 15.480862240737524 15.714611076078336 15.591433886486715 15.479049114258213 15.733499453360643 16.11691315349356 16.067394242418956 16.434047704426526 16.77463441175049 16.426688245479852 16.70132036123973 17.878010645398373 18.453422001235236 18.004427072861795 17.689756559709824 17.71973287024635 18.481765171031505 19.169350837030724 18.651312838486348 17.42681421008358 16.45924484332404 16.13149255082255 16.147731940504205 15.847367322501743 15.530888816994056 15.699299330665577 16.345030975175753 16.773533822122367 17.163233987405572 17.78813668072312 18.146604852233175 18.037824011384316 16.883866057776057 15.399156685671388 15.283049014684352 15.982777241972085 16.312410439383147 16.462730879232577 16.595821568121764 16.85627936039943 16.816071527582782 16.801536665649277 16.378476656913072 15.441779422065895 15.322964353766906 15.822981111359924 16.229439833892435 16.228859727051496 16.419817431156538 17.10236970317794 17.353498100148915 17.416141186725287 17.93537554023797 18.812748603103763 19.579848077101406 19.460469543994233 18.537588360768652 18.135072102135435 18.21902780952896 18.395555629019924 18.66898607330684 16.98712874490846 17.02167455038748 16.71174508236027 16.416790380347212 17.158177318355815 17.568736974145253 16.65288080413002 15.57312669151066 14.970797741253387 15.18852546241599 15.567885547925412 15.796173621399094 16.325394432026663 17.70995415270803 19.53436207495843 20.115030434087725 19.650038366971174 18.650139451795575 17.83162002550469 17.740216458184378 17.431496494599 17.54433274365244 18.315850485147358 19.098674794974933 19.44414037987179 19.801024980015303 19.80770588419089 18.757436421621787 17.44711102424037 17.165890147764582 17.756048691871154 18.218643854284853 18.085826854003997 17.579307494704636 17.084788137732254 16.866117558274553 16.676850595869283 16.79824233266215 17.089502620398253 17.28858420196138 17.730165308393428 18.073322160467146 18.31851816048476 18.760579123032038 19.19896632627864 18.800200082147374 17.66750830888126 16.38853909061731 15.822311917275762 15.726856007026285 15.372901892769054 15.103645368423225 15.847799129166699 17.2660290209519 18.293141550342025 18.96913388098508 20.003975651263847 20.758267411842 20.8822669304811 20.08689357069527 18.63355784890602 17.393626502990603 17.0050672636094 17.07240298219132 17.175638148308025 17.39343745953704 17.449448760529876 16.968943848374565 16.934833846944414 17.99079813434781 19.06506687634449 19.087481022108427 17.75109790089678 16.36155875594671 15.51499672884287 15.266436138821321 15.86511762516786 16.796622825514216 17.215057254783588 17.17603683354516 17.78749337382903 19.309876033102547 20.65534168841833 21.574401160706714 21.777125531493933 20.654949271734047 18.812913507906575 17.53013857312151 17.018537740999598 17.645059764869828 18.519223139475972 18.66713326415726 17.98716877268292 17.032087733096212 16.274476523432476 16.04487026084696 16.859992155032376 18.03773674333793 18.48967298589506 18.20349745724398 17.997402387229208 18.181590178542354 18.515281276140453 18.03154250049337 16.880097971195585 16.281357986839822 16.35266528775865 16.465690575558238 16.574564998487702 16.870229436324934 17.041495718883535 16.890591788398165 17.24794199557621 18.388812620026826 18.959452899130095 18.780036731100427 18.70051100879761 18.52305037464556 18.269137608346036 18.567786635302983 19.55025137365397 20.551686496248244 21.318285850166177 21.748362715762504 21.253125812856744 19.595576086100962 18.096865507838725 17.72104866890217 17.937273917120955 18.002987575097592 17.973941718835203 18.533153651070148 19.50665129779795 20.336242702481755 20.039484373075517 18.594716717738212 17.26778095009751 16.62044265834744 16.23493330834743 16.00306774106165 16.17160530308235 16.21866859212403 16.387571208689714 16.983496060928104 17.329069877433557 16.889557703194946 16.895952221274992 17.33965466500836 17.082734812994183 16.994463471845656 17.599578023658793 17.784427144995888 17.245674417664784 17.255824301130296 18.04038937013401 19.36414701876598 20.404380296068872 20.291763348020645 19.392200564540957 18.34855621324711 17.629376773852787 16.931415134178756 16.15569587603891 15.518630499847568 15.368194372963329 15.844207811216217 16.150406808925496 16.28712735388897 16.756441466470836 17.53184975271209 18.016972886103638 17.312855609256605 16.106467787700677 16.07499078518557 16.644190645826882 16.398262837487685 15.956830737638336 16.145080248232386 16.8719589007611 17.23841220615522 17.306638428505856 16.918862114653034 16.119358584161745 16.062445319068235 16.571350839397883 17.076322616177702 17.080171942440575 17.02721704822532 17.284244321173496 17.286908250184684 17.530827125892298 18.49803030012028 19.579530909139912 19.860630214231488 18.93245701648837 17.365742949654344 16.692843893865025 16.69880409747752 16.659308255165048 16.763484662202735 14.967603528781686 15.617395981282282 16.184285842011448 16.720277287097762 18.07900974524518 18.949760577992123 18.404842894203167 17.24702075597972 16.223369774702093 16.195396013225068 16.652267288191208 16.98350599510181 17.128541401093916 17.90277018416644 19.66555743703105 20.794327330825205 20.78047707010737 19.617388236644793 18.06427669260524 17.23191516626718 16.85488964882715 17.651059654256933 19.140940007405426 19.992337597739567 19.984731391983548 19.965868436322157 19.849718435369184 18.91428819310659 17.64931767909393 17.08340678882453 17.26837993125421 17.43349814156215 17.317204860877872 17.137181884966544 17.046477523670163 16.82465585405442 16.511405361654976 16.379790739019445 16.385978921876408 16.366696310642773 16.586690320186214 16.61353480836877 16.817231450037088 17.654323826108534 18.492152698642872 18.268483325546825 17.454369000139565 16.857861953113748 17.13401687993252 17.375307406661086 16.776418050598405 16.06705575763808 16.421625719097808 17.500392813093747 18.544007511572815 19.483679173762937 20.46131397450545 20.733874913853995 20.513012295779998 19.901937303589794 18.715238648354376 17.46602367162118 17.26452132237646 17.77476174186874 18.09886337011929 18.12394449042687 17.768954089909528 16.76060348115699 16.417909555088553 17.622990234289727 19.087911154687433 19.285778487804173 18.138620744319883 16.81098677754325 15.475812847496313 14.93050608478929 15.585887196570487 16.42073757996549 16.63753598758676 16.775142789788806 17.78929120694928 19.411140296049375 20.627873364985618 21.375999602453575 21.621255434669507 20.55321003660391 18.697782699664337 17.378130777979973 16.723729133140726 17.11058849807195 17.484567621105512 17.17957429559861 16.827057814052534 16.94341856109655 17.214813469700104 17.51093440663206 18.114223178570516 18.839868334257993 19.25609694076659 19.097408379625033 18.89409832275887 18.68840138450987 18.35684916892111 17.53831244949314 16.48615175480154 15.918207238350048 16.012398790669632 16.233456798829874 16.082507727025796 16.18526855108822 16.72064536375018 17.03911330203093 17.744161301898256 19.028163916319766 19.465061496272195 19.05122763774915 18.75336009386397 18.520961019921916 18.465831800002373 18.973396006366915 19.9961735967357 20.99557350006262 21.78097253866646 21.664657852862934 20.45219475794103 18.55301335124441 17.464899574866088 17.807260359486595 18.50145878371695 18.594326470276233 18.47406708864236 18.873113332987234 19.525253056567347 19.889447055678666 19.51810127797565 18.35792933914383 17.44307819066588 17.107502451261542 16.728655672192176 16.276225691522875 16.377222386366544 16.751173577002646 17.43598391845081 18.386194415916414 18.608495289997816 17.85467931977046 17.48446907123039 18.01189481382829 18.300130087487844 18.261874500105844 18.242862720560236 17.806892129160396 17.120290776675606 17.223094744152963 18.100069020688508 19.25145224812936 20.25982502470242 20.60440167097926 20.361442778969145 19.699916603694497 19.131498201539877 18.514627013777268 17.80713397138878 16.810395854305668 15.94378205883811 15.850824307108473 15.825066077068826 15.860922091814318 16.319159109188753 17.26385830980546 17.97549485542227 17.602161688472478 16.774886313622943 16.970471098986565 17.63782751151752 17.09384412267348 16.058626549501877 15.8580795301897 16.451215568370007 17.193560902918033 17.739436630457398 17.637657034332385 17.18146691569884 17.16572564346841 17.34863229048014 17.615752395405742 17.61995501194031 17.357422974193902 17.168824764828223 17.08050369240912 17.709264372761446 18.986618074720987 19.93908628682339 19.55800890171113 17.986635818255102 16.072710427648886 15.220330867347442 15.118414751951605 14.96039483297895 14.743477185406961 13.754847697187214 14.463856188898031 15.703828857454104 17.128297217740318 19.01420988035122 20.063227919067582 19.72923783759257 18.63002629208709 17.51120957679871 17.400849278947405 17.799571007905573 17.933255589289047 17.636187652397645 17.989801671655147 19.686333593897558 21.202253159328908 21.647378242960208 20.65364706876071 18.815841756981694 17.47332942910809 16.931976524324238 17.84503536863586 19.434591713550155 20.15637853846542 19.895373257923552 19.809899554586497 20.026210283095423 19.71315917436488 18.687431403686148 17.735534825466573 17.424946933831272 17.224501349595997 16.90152782409917 16.667421208817647 16.651035394987023 16.30871716970399 16.027317379634457 16.061442267808435 16.078275457034483 15.88587891397578 15.573159051051464 15.055169985188815 15.247825863670878 16.463945808176646 17.514402880550225 17.450627127856603 17.071344709232886 17.2404548673356 18.2111164928349 18.585643547108315 17.669131547447105 16.522900969272698 16.389024963801333 17.122880139638987 18.17970009485672 19.364636620934462 19.994535473198276 19.60403439565793 18.99118130588262 18.599780579785676 18.04834134358527 17.133351006928912 17.046597001038748 17.993634794241416 18.881975325614377 19.2892348347417 18.813162205175626 17.347574001406684 16.35182156260973 17.01230608282335 18.363887893015796 18.68481270056013 18.008519980996788 17.384269295005144 16.353277519768536 15.744954343500824 16.15647204512131 16.55637537423367 16.376639547662123 16.192561663231032 16.942003859619675 18.400892511942406 19.710056346339453 20.69028466195172 21.13218690831238 20.253711723352342 18.50445270341644 17.03356925902697 16.200571580499883 16.438877480060693 16.843775275715167 16.925382610955992 17.245412655087875 18.063264519912572 18.807338865609704 19.147476333006697 19.183437839801496 19.012352444268647 19.185289768557375 19.33454381793491 19.417030876352257 19.144761041546175 18.502010710380468 17.623469595607688 17.027309884825783 16.8674130368107 17.19599583224013 17.513752213627466 16.837469055138826 16.09267330181388 16.315235866049402 16.778191224152202 17.845625571189604 19.15975793802446 19.2479110755044 18.677887994813787 18.501581319890207 18.526510692720187 18.63523197403864 18.86960512300772 19.431005911810256 20.257513163692227 21.023181624626517 20.442702778260593 18.736491638062912 16.846434350129982 16.384330928564893 17.521849382296445 18.78897152075551 18.9560598615197 18.702618290695433 18.93545862220123 19.21890575878248 19.09737531313457 18.89531746805665 18.45228051811631 17.993681207040225 17.530846511990653 16.767062585093345 16.116844220565504 16.24952772012829 16.825690996372252 17.80060419593605 18.89430572780886 19.13202121263591 18.423873399024952 17.938205732176495 18.467608936082602 19.188724850469303 19.358532910816553 18.88071854404704 17.818412660806032 16.959046471044914 17.064678511588344 17.53971545538261 18.09738491060913 18.80761513694532 19.405706084711245 19.81257785290208 19.87006479661849 19.881319300324538 19.793266084896278 19.35674012830597 18.214927690556593 17.068336323110838 16.820355919328435 16.781671921506067 16.82433619066684 17.204431350348923 17.921596297697523 18.3834542902826 18.003924825399274 17.422525215343008 17.741836775213738 18.448763989204515 17.987055680192586 16.73794277634206 15.948891421388382 15.819339760928854 16.482727743044993 17.50950046872301 17.83950405760633 17.73986271375425 17.72767824932423 17.731894986231715 18.127384161036492 18.64845811768049 18.5758599092778 18.016688918489066 17.580899260590368 18.100835211788784 19.20261025819594 19.885090810349183 19.1980815363444 17.460573959888503 15.496241732112733 14.420205750930746 14.250141998869337 14.263599673150813 13.84737002065687 14.073006126405032 14.31613346971961 15.451339756738266 17.2281620286343 19.340041176856943 20.381260863803163 20.174618747181647 19.22906173098885 17.980330372776184 17.53168022584719 17.732456521125222 17.730812208862144 17.22512817735272 17.25723355435071 18.63830995128862 20.27343997203988 21.239919182927892 20.78050136884839 19.097193204855675 17.449826270118045 16.737869655013004 17.401013457710484 18.707233300587433 19.4432020301167 19.47440011669035 19.71517612113405 20.22906581171011 20.376916672261608 19.697539903392524 18.436341905080404 17.351798046384097 16.65392018703231 16.320703599840826 16.202961360400355 16.13216772165714 15.766091394651832 15.827777591991119 16.30289361780022 16.44914441201092 16.13411561955691 15.245172999756498 14.171320335699003 14.295954875438335 15.659234036373329 16.80449812696719 17.085768055420623 17.13812901786647 17.552373490434924 18.597149346363338 18.97399872307294 18.046270498795415 16.98284233089254 16.92373198756812 17.610134544065602 18.308339538046077 18.90664048623916 18.636801632491306 17.63755628553328 16.900423468138325 17.039272238540875 17.51861765750231 17.390031880126465 17.465253168789534 18.365287218132565 19.249208789592657 19.912242044103802 19.615666125806456 18.214616353492485 16.8617932636962 16.855569303619244 17.89509560091442 18.423818632496058 18.255269309108588 18.18032835471042 17.56509751635555 16.97975846483819 17.135243578883493 17.320980122960044 17.113929429355267 16.602257605305095 16.659328198306117 17.551706226542812 18.672143530750997 19.823080832501525 20.378386843056894 19.664004511113287 18.088046537703196 16.563168246485475 15.826477009722236 16.323335072101532 17.287284414952047 18.046885537994097 18.665173519446828 19.2224786937846 19.622193739148045 19.801469916665752 19.55039105867412 18.77824085818807 18.612619486649 18.80964328089227 19.20011282122478 19.265836767916287 18.73634059944066 17.924088847562135 17.655646738356936 17.7544166379237 18.306492008118422 18.674180874171487 17.708262651605683 16.54896087939749 16.626861069218897 17.06775449945261 18.107408702979253 19.184167267000703 19.082582656976488 18.70867291328539 18.77543806048813 18.942304769485922 18.810581697140332 18.328590259854725 18.275295755419265 18.940946545719243 19.767770064863164 19.09151592941171 17.37687317438485 15.931925185518184 16.14161688848202 17.663575853040154 18.96289957403558 18.898855039567984 18.410593748310195 18.56570014598619 18.623130301888924 18.19247875147975 18.19930407745956 18.431182594497873 18.111216211746996 17.32517095984963 16.39108987222348 15.70689688103314 15.769312758488303 16.217796377333507 17.295507013986878 18.619965308839745 19.15424525641038 18.56517217706578 17.997283856495663 18.398667405310032 19.156482341943633 19.45948191221786 19.04144799445336 17.98638582413377 17.118819362061203 17.090547456232358 17.081041374148185 17.05167683008634 17.29397160664144 17.856559024071725 18.619407005007165 19.32001211095176 19.759540139121988 19.84995674765729 19.626209658799816 18.75855640408537 17.933382222797054 18.045735876333406 18.4958680022657 18.6260868871715 18.598298553967503 18.6542272189716 18.655162932526224 18.326114809120558 18.082954565597884 18.528053953842292 19.18907941395463 19.069768692191932 18.052110983029365 16.897190256489772 16.013865903400895 16.194966890814264 17.05774916249861 17.2912994223374 17.314156075732917 17.502181978903124 17.83617350447974 18.64496485724773 19.51758059699812 19.512252498743457 18.724684890262033 18.13627436151719 18.481847355719008 19.245019031276517 19.52576316498169 18.792789680290895 17.426143573669123 15.852477278102892 14.739260098995894 14.609184392816319 14.89749635488607 14.470767036893305 15.367986311310997 15.044242874718293 15.638336647419957 17.103037112722514 18.83544451279793 19.666745351502815 19.6399829254834 18.995097993168255 17.707067053936473 16.88311320375836 17.07847048907796 17.43376893978048 17.11176513343315 16.748508986265804 17.279554119386788 18.37753278158363 19.435685428056164 19.465923810228105 18.251306377250344 16.56192839536101 15.68466226570393 15.963411947687751 17.054075107783152 18.135893016188326 18.713857340325166 19.13285457973474 19.572920383704286 19.796921772338962 19.524222994678784 18.473690440893193 17.096500917487997 16.264876463900958 16.20765269330606 16.21665623215998 15.782808278413091 15.282516268114135 15.643685399731869 16.315693307155996 16.3753835256206 15.915547938258339 14.920909422699287 13.937614244912256 14.231134514515407 15.492477341004426 16.52977736011983 17.19476630429352 17.581218809332775 17.830722836725673 18.61541013424413 19.12162311105775 18.494444759171653 17.65442854010376 17.896362983509004 18.696021831818733 18.87872411180957 18.409591509352552 17.118582783799127 15.78256150004878 15.08904905686161 15.72253382586129 17.192637968189246 18.045643834552298 18.61614372034551 19.185568922222064 19.299695893442852 19.476057565406272 19.244274679246256 18.24721659760582 17.108758441715914 17.005361994268704 18.091484625702567 18.952237886890597 19.156226830676623 19.180771723449386 18.59752139226676 17.67712567677924 17.346010818212658 17.497660989036916 17.693160179031818 17.274173480468935 16.82551462282472 17.193188474880074 18.07747330002434 19.269494433288358 20.019132383294387 19.627737785055444 18.229873375415714 16.64963230731964 16.051112634611677 16.775666698663183 18.04816110941453 18.972762438570623 19.306063117233613 19.138337002235 18.859800644613934 18.8971229672497 18.83315971857829 18.084271671051216 17.667553227854814 17.616911385924944 18.032947372504385 18.497997082542685 18.44456516923604 17.871315986009815 17.41584340182718 17.172411530662867 17.802215522107844 18.488104034293134 17.832083410217088 16.930931720930555 17.144670959922475 17.417321306565075 18.052443172541526 18.863484489312246 19.0148714120872 19.141562283604596 19.2358461445439 19.005164341821494 18.24122304315941 17.11402216611758 16.7682014103869 17.489773746171817 18.492499173485232 18.135731779671175 16.79539216829483 15.924106890059049 16.592339648608935 18.055047239022322 18.921292405215482 18.457117559838537 17.77128681482273 17.92990525006603 17.95248998791176 17.44129230201232 17.52415923521801 17.93471368902634 17.38711080096018 16.35539374325529 15.591036323744062 15.093038206484795 15.16137412360076 15.499208082924982 16.650977690773065 18.30230949995565 19.155212862144428 18.46643782851047 17.70381770216375 18.007350803838342 18.66474239464169 18.879010854361514 18.609938492281973 17.9043466943044 17.21552453363463 17.059032967373767 16.874758717657606 16.682029238495726 16.75148811583482 17.279588924061496 18.011506684245408 18.81534432766798 19.165752589761123 18.985326880844795 18.95225822685535 18.544168309029455 18.18496442043766 18.818811350248854 19.98492753514662 20.324335815317013 19.655618325648597 18.778927971096838 18.11770516278753 17.812282999019345 18.092581006254523 18.927090246014423 19.563596414786698 19.615243905619064 18.94284300922079 17.887774434884967 16.764428964234877 16.466591145227756 16.825873396197192 16.870705468363386 17.074973736315968 17.491864389249145 18.068757415379704 18.818676858988745 19.34616604102218 19.059803342331143 18.32101307207372 18.024999135580412 18.382488743043336 18.696705804293867 18.486792688479397 17.927750897824794 17.466889537297476 16.830265575211747 15.997372100786844 15.903587393242631 16.32312124286589 15.933659543849885 16.42333034804055