# vtk DataFile Version 2.0
Really cool data
ASCII
DATASET STRUCTURED_POINTS
DIMENSIONS 200 200 1
ORIGIN 0 0 0
SPACING 1 1 1
POINT_DATA 40000
SCALARS temperature double 1
LOOKUP_TABLE default
18.228421945432473 17.991031738030802 17.721505058704626 17.42819999231171 17.123095102232508 16.824197674446943 16.556854616436247 16.351351502345082 16.236144020476008 16.22896743155298 16.329554375778923 16.516889495845827 16.75201479720416 16.985868168908056 17.17065532169871 17.27213055071651 17.279007307234277 17.20580460664166 17.087628665877542 16.968758371457028 16.88934316556842 16.874691374809686 16.929963509429854 17.040979624439256 17.180219575450185 17.315947736461176 17.421525461763142 17.481706340307532 17.493727991773998 17.463425524332667 17.39922967945784 17.307928610388576 17.194554452308633 17.06575175456878 16.933678465756447 16.81731488107659 16.739712350776664 16.721873350665064 16.775517217552977 16.897544006453156 17.068535440492806 17.25625102576332 17.423222358095767 17.53600349713844 17.573117564889788 17.529419895739917 17.41606500324318 17.256826808494626 17.08247763345978 16.924861390836032 16.81146121865144 16.76059471651744 16.77763000060889 16.85345352068253 16.966606913729393 17.089282236980786 17.195372672280747 17.26752625687989 17.300603234676107 17.300748813573467 17.28127191244837 17.257585450973114 17.243224084705133 17.24776048425839 17.276138738307548 17.32841556658872 17.399446930730697 17.47907735878741 17.553828194800534 17.610390494343132 17.639904425438015 17.64115101325701 17.62113315050962 17.5928739788351 17.571671979270402 17.571572984558713 17.603177763245267 17.67270675177972 17.781499730533834 17.925401676922775 18.09440359533899 18.273507332911183 18.445398425171682 18.594355288910723 18.70977846706729 18.787603855283656 18.828847210268233 18.836106574266925 18.810132005910276 18.74871777599686 18.648906914427204 18.511453525338492 18.344933250424287 18.166872100959438 18.000833776164242 17.87059190822127 17.79397168702157 17.778838275458508 17.822284335044973 17.91246382755191 18.03178509335632 18.160374749048074 18.27912086233593 18.37173822648572 18.425526553436175 18.431247720331402 18.383348818357742 18.28149803789848 18.132821971170483 17.952704587694658 17.76232222115727 17.5834147380345 17.433177209541373 17.322330032255195 17.257065996700025 17.242641895612856 17.28525717414356 17.39025357034038 17.557311870666208 17.77537082869072 18.0204437695029 18.2584174992563 18.45282667345844 18.575197652806153 18.613833587372135 18.577013223349287 18.488939454624933 18.380293689631923 18.277728214539547 18.196506329668917 18.138221527426897 18.09300306002627 18.044385891297097 17.975101471861926 17.87248617774942 17.732400992093858 17.56070941336212 17.37188317020013 17.185197141598604 17.01985927400172 16.89089202689017 16.807353590506647 16.773454385628842 16.791576077195423 16.8649393954273 16.997632387751022 17.19123088918783 17.439565918276603 17.724821340438723 18.017853408529003 18.28341311924772 18.48818741636989 18.608106500587464 18.632168197332522 18.56238208950549 18.41144928760337 18.200040409774175 17.95427463766338 17.702788983695882 17.472867593229918 17.286256275792944 17.156187423867106 17.086751648004288 17.074363003392754 17.109956738584867 17.18071164498212 17.271237271827083 17.365117566475018 17.44751154811852 17.50832211068791 17.544318177207504 17.558618268705906 17.55733347797282 17.545015700217295 17.521454441178438 17.481553891375462 17.41809761176032 17.325640135511712 17.20360396468118 17.05768623746278 16.899780814433246 16.74693796100623 16.619533416188133 16.538562041493797 16.522270845517564 16.582875151387633 16.724210491002836 16.940706639811626 17.2175489269455 17.53187045906237 17.85520538208675 18.157540406447616 18.412591495743623 18.602721409904508 18.72129695329847 18.771184815445682 18.76020956734778 18.696215333017808 18.584378651488283 18.42757157164762 17.90498010650454 17.70350932523343 17.48610546672059 17.255476322430688 17.016761934256778 16.781102775193997 16.56820090067208 16.404939208008777 16.319089572411443 16.330195770930285 16.441454044417394 16.63583554071947 16.877852766460578 17.120739629373013 17.317642196598445 17.434120859783434 17.458009498896903 17.402726343490947 17.302339778703345 17.200140747272517 17.135070002505103 17.130702884473457 17.18991788527189 17.29614902292259 17.42019795070798 17.53015821225072 17.60107844089393 17.62093655242515 17.59087182039051 17.520316869126763 17.420346123754253 17.299332316092045 17.163120560403904 17.01869549927569 16.878091522898934 16.75945404808956 16.684130206768277 16.67084056941377 16.72920692889335 16.855030067909855 17.029077297528897 17.220062431041086 17.391217920446426 17.508710866246354 17.549538405735298 17.506699779132045 17.390361456121685 17.22507900221226 17.04428865346566 16.883628584401805 16.774209612080295 16.736498409906044 16.77570894850253 16.88020661124049 17.024299562024165 17.175315927242185 17.302798417285484 17.386476548878953 17.420249033931054 17.41129995729319 17.3755142842802 17.33154249502675 17.2958082960955 17.279695852209066 17.288779589292538 17.323097854750305 17.377594991701148 17.442697772308716 17.505715331518914 17.553638388162774 17.57697184272696 17.57320258485019 17.54826623383832 17.515252695246367 17.491025007927288 17.492365610157602 17.533017182300185 17.621857166076175 17.761511404949097 17.946854977612958 18.16392283607961 18.390674068197185 18.60075065203833 18.76976622111652 18.881801051077105 18.933047854219947 18.930652734622026 18.887261227162572 18.814209473010358 18.717147548191267 18.596456455371605 18.4518997895247 18.288380182935995 18.119087607211092 17.96401188238574 17.844548042673228 17.776976755975546 17.76780690918233 17.8125223523159 17.897445935422517 18.003427951870677 18.110049888326387 18.19932670772008 18.25804750183502 18.278255369434106 18.25631759841361 18.192025243186837 18.089015008562086 17.95622377811532 17.808428835716903 17.664035404906844 17.54042399134868 17.4495176027249 17.396510973943652 17.38247106008026 17.408586454207164 17.478586726449667 17.597140370613655 17.76476996633646 17.97214168319562 18.197281810503416 18.408167305841648 18.570733776308128 18.659569078967138 18.666716399845242 18.60435262401885 18.499866345211093 18.38559693747439 18.287869642481493 18.21958425008494 18.17820984254723 18.148599534280265 18.10890381916158 18.037797225476584 17.921318990825064 17.757569254377508 17.557792597461642 17.343418015216734 17.140087036715617 16.97085117802266 16.851018880930102 16.786456748011073 16.77568718858158 16.814362465162482 16.89944322653278 17.030495300163132 17.207168215282945 17.424338744881872 17.668089913849293 17.915434875535418 18.138516811983212 18.31131709555162 18.415532407601052 18.443169027510184 18.395770330558516 18.282125237629078 18.11637824606091 17.91697646207019 17.705471881588693 17.50417735880459 17.332875291055974 17.20585594384784 17.13043956329507 17.107039274901247 17.129933672721023 17.1880933430724 17.266315439424616 17.347464296339048 17.416067921735284 17.462225372024378 17.483850336191917 17.485676982382174 17.47519243895347 17.457625914794377 17.43282162046492 17.395607546117503 17.339032662346867 17.25830574653451 17.15345473348414 17.030111861651903 16.899017414795942 16.774959771443324 16.67528284560476 16.617738753578955 16.61777144357107 16.685824942396817 16.82531174796981 17.031428019856513 17.29067918899087 17.581249155699446 17.87489983365781 18.14108684637544 18.3529317188824 18.493127451291876 18.55708176875544 18.551616284935534 18.489952724362876 18.38581981677187 18.249659406609407 18.088024872829646 17.57026226524625 17.422930361085236 17.276149245796677 17.12550305062043 16.967810479780155 16.80607554302375 16.653504529341387 16.533285883384647 16.472822943307854 16.494337194467402 16.605767989096172 16.795551441248513 17.03309080639093 17.275003132608447 17.475902266953423 17.601055800567515 17.636874195875244 17.59507260198899 17.508413454954965 17.419432283793128 17.366448454899672 17.37191305318154 17.43675287576999 17.54193819392775 17.656125862273196 17.746455329900957 17.788650214705726 17.7728295167079 17.70315877788183 17.592325087221955 17.454405920076326 17.300262000596295 17.137535701442594 16.97409297289407 16.821660945606727 16.696755628147812 16.61804658324067 16.60134415577164 16.654282228359914 16.772552034634398 16.938860297673006 17.125080450512893 17.29737590174814 17.4233175761252 17.479295053735296 17.456169109541207 17.361498528685086 17.217802217055944 17.05760841965293 16.916708608976307 16.8268874093377 16.809110936048743 16.86840607709723 16.992148456266694 17.153135691139937 17.31715806484687 17.452653162110586 17.538941723305406 17.57024301059872 17.554631848695497 17.50914589197089 17.453445752283837 17.40445110300397 17.37341132151401 17.365457309991942 17.380557715104178 17.414575165064413 17.459846556897208 17.50578417234351 17.54051183527552 17.553997084569435 17.54185934305911 17.50806521929957 17.464979169400852 17.43064387112951 17.42461643734585 17.464024195625573 17.56059984609208 17.718337357716123 17.931272964362464 18.18193624337991 18.442166564143704 18.677842849646446 18.857204403664216 18.959928274178953 18.982809031482258 18.938977351739563 18.850763942295544 18.739777970002294 18.61933531376927 18.49291466681778 18.358680633575947 18.216626197100748 18.073731377638907 17.944218127196713 17.845139857642582 17.790065558642354 17.784123006756257 17.822308059067595 17.891068012497513 17.971994636547944 18.046252186741135 18.098523812705963 18.119403789621337 18.10561702017403 18.05852076400929 17.982424395624896 17.884175054574715 17.773915200753052 17.66526530034012 17.57321700047694 17.510020247724338 17.48155551118542 17.486932649405972 17.52189265815553 17.583717736048897 17.67408166399525 17.797524646229736 17.956034606276916 18.142733183849362 18.338542741473713 18.5145685204248 18.640228785919522 18.69405426160272 18.672177841086977 18.590200467285893 18.477320934647338 18.365524526185233 18.2787470349302 18.226122278241675 18.200792323707834 18.183448022591126 18.148892960513894 18.07394152957591 17.944875288381894 17.762406426142334 17.542378989743373 17.311725732517154 17.101000578896844 16.93616022298872 16.832528573332663 16.792982603837952 16.81067997202451 16.874700466448978 16.975627559994503 17.108170664686295 17.26964424671455 17.45565327546437 17.65611284487618 17.85449394964863 18.031018460386562 18.167913548364346 18.253636026836205 18.28401131790849 18.26059967033445 18.188374304955097 18.07464050790994 17.929438535789675 17.766118949398066 17.60068176852591 17.44966037202822 17.327499403012407 17.244475788107117 17.205436383286337 17.20902841814966 17.247360712400422 17.306737869853997 17.370252697965324 17.4221161107745 17.452203977291493 17.458551270061253 17.44624232043458 17.42312832605295 17.394793172635975 17.361681227574746 17.319795772383006 17.26399086665574 17.191481794688134 17.103722131973555 17.006438314773423 16.908771598505457 16.82235023113023 16.760293897077595 16.73574234918796 16.75987009434249 16.839883669841182 16.97748517173244 17.167805470335463 17.39859396207876 17.649944190264694 17.89557427028448 18.106677513344334 18.258104107128233 18.33478901995328 18.335392802929853 18.271159547060936 18.16058850154816 18.022827458100124 17.87296818792762 17.720552411254058 17.26941577060188 17.18628661786988 17.118779353816056 17.0548523229387 16.982468029605016 16.896021183268545 16.80192195898059 16.71960872728089 16.676321709018158 16.697403431580707 16.79618470529761 16.967388518063835 17.186246095757838 17.41367968364613 17.606477488008213 17.72992903633211 17.768927621705885 17.733181833030546 17.653948361349027 17.573143768980554 17.52895199960759 17.5433451793287 17.615837306758163 17.72514579508763 17.83752952119822 17.91840337940003 17.942931991607708 17.901894195122562 17.801135013648857 17.655799608104697 17.48294300055868 17.29651866474442 17.10675298315336 16.922871623905664 16.75622747608484 16.621230791461336 16.533380707114524 16.50547755115784 16.54369247239285 16.644757431495567 16.79492576413046 16.97105080444544 17.143989175266043 17.284116451238365 17.36790951932266 17.383741878412188 17.33496174608379 17.239253058044216 17.12464434019409 17.023383474678912 16.964920850061347 16.96907594057403 17.04077947593047 17.168248817585706 17.325995829304407 17.482264168088356 17.60833523229349 17.68617799945206 17.711810065509248 17.69379680502745 17.648280342099053 17.592941116982008 17.542190606696536 17.504936638635293 17.48489117315628 17.482190089004845 17.494695646390642 17.518058902449354 17.545030271624242 17.565585806501865 17.56920544545534 17.549070547777365 17.50621438189761 17.45124255779555 17.402566319574525 17.382067587163615 17.410135903604438 17.501461653239218 17.66171238826696 17.8847200835337 18.150658060964123 18.426959635798255 18.673779834114143 18.853844551546587 18.94356007466003 18.94041301706402 18.862652225683608 18.740892657835097 18.60559384884434 18.476624953874143 18.359774182991124 18.250905892727467 18.144213335850065 18.039297982113045 17.94336341948056 17.868191939687105 17.824434171125063 17.81654466378122 17.840540698714165 17.88494069070857 17.933991921559354 17.97189710667203 17.98672486536323 17.972769393579924 17.930630147573286 17.86542984969637 17.7847041615985 17.697434066689105 17.614225068708098 17.54708636253241 17.507316973153067 17.501873345812722 17.530586674586285 17.58671192547382 17.66115177749356 17.747944814939967 17.847411045508277 17.964608266482074 18.10357958709836 18.260506138019696 18.419884209467558 18.556670649488616 18.64438937688742 18.665803169573568 18.62084758030439 18.527542951702497 18.41524490001939 18.313616760989316 18.242471291527437 18.20627323119708 18.194174860740873 18.184298111101196 18.150492729211123 18.07009975929254 17.931176815497444 17.73720791892354 17.507458099299658 17.27239730310376 17.065510473893614 16.91429327339084 16.833584742429544 16.823506112382827 16.87248267582871 16.96372460901473 17.08200683987885 17.217528553049284 17.36536205081553 17.52167813636193 17.67985291755266 17.82935106959638 17.958077939381763 18.056335343297903 18.119501405657452 18.147763346680005 18.14359768044561 18.109282941850072 18.04636195734889 17.95716095552964 17.846863286157507 17.724463137771757 17.602007661583247 17.492670575527566 17.40845567185941 17.357891343567132 17.343835925128147 17.361926605013366 17.400740756449068 17.444490831683197 17.477810624172353 17.490697709221713 17.48112961324082 17.453902520124615 17.416401113423422 17.37391369021495 17.32732279973467 17.274238516428007 17.21222516945521 17.141624938110805 17.066370968414617 16.993042765432275 16.92949980434123 16.884029152576197 16.864878558920836 16.879561753412933 16.933740866782966 17.030066003031315 17.167316342188563 17.33968346886485 17.535885723234 17.738453250722355 17.924418576661488 18.068681340960858 18.149952166575748 18.15716422689952 18.09317834943383 17.97363763006727 17.82148122837221 17.6600035694389 17.507654625305406 17.375930291706048 17.043709295379493 17.024285615213202 17.03213759603029 17.048444879128716 17.053162452269152 17.032779273280454 16.987375903891113 16.932821660616888 16.89609574572909 16.905369551285688 16.979049191326617 17.1180245744715 17.303612342579267 17.50170754393265 17.67218010619216 17.781180926896187 17.8125830347076 17.77416688207458 17.69550696877534 17.617761214950868 17.579114595938766 17.601528172208088 17.683751374311598 17.802790098993746 17.92262889277902 18.00644641874886 18.027675844449508 17.97613954722354 17.857716362688624 17.68878592168346 17.488851708527548 17.275081153030627 17.06074508336605 16.856865894952012 16.674649762459957 16.526490749906745 16.424893650513145 16.380100515541773 16.39757590948386 16.47603560902188 16.606258786822945 16.771009823440384 16.946702052509607 17.107258729797984 17.22968259770016 17.299686320327673 17.315328706650547 17.28738547915484 17.236553127734453 17.188481952336094 17.167702307351586 17.19141235153406 17.264509514759638 17.377762595049024 17.51051151999885 17.63739239036952 17.736454913850952 17.795292354856596 17.812986735600017 17.797852440086636 17.76271941980611 17.720069402457305 17.67885606259069 17.64379926512008 17.616747886501127 17.598708250487135 17.590818027560143 17.593314175235175 17.60318641014331 17.61265962419845 17.610615597921708 17.58721982466546 17.539608120542606 17.4754412530697 17.412334080007998 17.373591712380936 17.382383034004334 17.456349275866103 17.603328212136713 17.818009249530604 18.07989943510916 18.354275415916234 18.598047232983642 18.770559051449613 18.84611184710615 18.82271595922625 18.72231618738632 18.581627308609256 18.437668087140807 18.314977977509855 18.22037335769564 18.146638951980613 18.081682868494646 18.01742115705524 17.953975561554852 17.898217921709396 17.858808185714327 17.840992802322134 17.843575715078796 17.85883917563769 17.8749262259539 17.879594885847705 17.863995531445976 17.825083878918875 17.7657962383235 17.693304128209736 17.61679524277946 17.54619324339008 17.491869607365683 17.464007607067042 17.470403541090278 17.513234765126402 17.587062062518104 17.680258530930256 17.77993716624625 17.877861091343174 17.973757580072455 18.07372892741699 18.184248423230766 18.304903771281175 18.42414870744177 18.521149028148866 18.573686971735015 18.568494435992317 18.508497813887672 18.412804461162786 18.309289241928134 18.223715448783796 18.170681648778785 18.14975380658938 18.146919762286103 18.139511738473708 18.102716686447934 18.016509396138723 17.871933470028452 17.675126177602113 17.44737900400023 17.220543751920598 17.028858860343874 16.899802145359935 16.847112167018928 16.868439676266668 16.94838482619786 17.065472032511448 17.19983200176441 17.338076636314888 17.473547116822136 17.60295372121198 17.722526331845625 17.826625930800013 17.909498043485698 17.96829026447503 18.004580665554926 18.023021904936353 18.028063446235674 18.021151154602386 18.00030500342237 17.96216259539882 17.90500109747232 17.83099326023101 17.746821533955057 17.662740457621375 17.590504002670425 17.540465189031206 17.51830796866641 17.522486417513516 17.543855101915852 17.568357450432377 17.58202809406812 17.576000784357262 17.548913028807775 17.50547899806665 17.452313089238878 17.393807927282396 17.330701966474415 17.261917041156533 17.18785490783222 17.11252452778863 17.043168793719047 16.988141958848438 16.95480487252115 16.948551809728425 16.972772604123932 17.028950012958042 17.11650401994325 17.232597898440012 17.37210096675539 17.52741589917503 17.687776418449175 17.83835649055656 17.96050604289767 18.034493963318873 18.044767166916 17.98571433331907 17.864876823724344 17.701569551323065 17.52144034301065 17.349730363354908 17.206204967138827 17.10290074706806 16.922966720360346 16.957026354290075 17.024597049910078 17.102199932865126 17.164049362234834 17.19071530209648 17.17729889997157 17.136597255178216 17.094956290360546 17.08234324874738 17.120939070215044 17.216707445968364 17.35657223637051 17.511725064138044 17.646116333318183 17.728024984422948 17.74133039187633 17.69231375305114 17.608675007292316 17.53031072923367 17.495049220162205 17.52496021766987 17.61864875691135 17.75223733743793 17.88802438740803 17.986920011745735 18.019828958429265 17.974198871753583 17.85426282029726 17.676117483173723 17.46067761255284 17.227875289478206 16.994074009649992 16.772462898082555 16.574658504269088 16.41173698125108 16.29403579300032 16.230120248687385 16.225512403141725 16.281363984705607 16.393043582898542 16.549030211718577 16.731110463370204 16.916812328481022 17.083958937670754 17.215864019451832 17.305135733733334 17.354776642451828 17.376580571532777 17.38762649461218 17.405655597820108 17.44403634434422 17.507533155220006 17.59068547904106 17.680083132365635 17.759908606585707 17.818108442688217 17.85014744786509 17.858873089996667 17.851317519462118 17.834659958162927 17.813436388528892 17.78898140253897 17.760903809263958 17.729557446116676 17.69799475007109 17.671921696854564 17.657051727482532 17.654944935361897 17.659971568720728 17.660050904260757 17.64175766797901 17.597487148071192 17.53082497489385 17.457307672861486 17.4005005958769 17.385593082278103 17.433015523947567 17.55329590191804 17.74320213104732 17.98346488532803 18.239612416242895 18.46787595991025 18.626372860736744 18.688428680683476 18.652290301301615 18.541930036171312 18.397580736202922 18.260017629672582 18.156053530617484 18.091902460447397 18.056478449859462 18.031357336845744 18.001342959010245 17.960579859681623 17.912582078585363 17.86587814701451 17.828441217707027 17.803576040445773 17.788524499847206 17.77577631287539 17.75625412418191 17.72302043768649 17.673955010550692 17.612331898381004 17.5454330482999 17.482486609669063 17.433245508830957 17.407309435049385 17.413080808328385 17.45544153475547 17.532842281656396 17.635959623313198 17.749811253816198 17.859148197116998 17.954566209628783 18.03586987281643 18.110470898956542 18.187287917067156 18.269259008572863 18.348755290339895 18.409066004360827 18.43192950639374 18.407366572284946 18.340212484047047 18.249345480205225 18.159913981107234 18.092927092208953 18.057536926023037 18.048894547159207 18.05097994472888 18.04197886555546 18.000202696739052 17.90972190386402 17.765229422574897 17.575091618016305 17.361162515751968 17.154572557004194 16.98818301116791 16.887891003062354 16.865715412569703 16.91722471584283 17.024377089323078 17.162619797093242 17.309076731576123 17.448099768102697 17.572062337943464 17.678244664933164 17.764957165286653 17.82995194517065 17.8718403322882 17.892626163320664 17.898643479582088 17.89861780410052 17.899897012324768 17.905236984305343 17.912022139743524 17.914125539722697 17.905161061495352 17.881530751147423 17.8442332421296 17.79907901275278 17.755263179416495 17.72241667303185 17.70679581110262 17.708113482607065 17.718844765676444 17.726902928788093 17.720659264638176 17.693673765175923 17.646487141870708 17.58458741686399 17.514116332925823 17.438347553777092 17.35732476453757 17.270655747823607 17.18110961977871 17.0962145292822 17.02677300172172 16.983520986790687 16.974132803143537 17.001917133156237 17.06601995067584 17.162200589719983 17.2835989657547 17.421519409704217 17.566280294053385 17.707745995079158 17.835089217654154 17.93606224902771 17.997004159434905 18.004887148330113 17.95144277081109 17.837594079013837 17.67555544127422 17.486970123609147 17.297756551733542 17.13219049420342 17.008706006759212 16.9380994594528 16.918860516776018 16.990209711787372 17.09444513276051 17.206287196561703 17.297458899464765 17.345608496016748 17.343000722604657 17.300248931279132 17.2426255550643 17.200406657197128 17.19756755500633 17.24332863645907 17.329132254166534 17.43140772320857 17.51908793317192 17.56400900682099 17.551371942600106 17.486596282007305 17.395265798359272 17.31516745919708 17.282908474768362 17.320350467486342 17.426403919426566 17.577303050611583 17.734699159974113 17.85781526756684 17.91486925431813 17.890038114870592 17.784501961930697 17.61249452435879 17.39493357613517 17.153549714190667 16.907424324629712 16.672149601292674 16.460512440141674 16.283387302303105 16.150180022201546 16.06883390104432 16.045484473346765 16.083558651155847 16.182163555659983 16.33428403869867 16.526036576781685 16.738130961910294 16.949547341494142 17.14205076850933 17.303681497933287 17.430125915875713 17.5240780249913 17.59326399914169 17.647582320830818 17.69567961460323 17.74186857739391 17.784964781234766 17.820118905314853 17.84285305924833 17.852731506915255 17.854137453680792 17.8536534764427 17.855922728940595 17.86074409315613 17.863093029288933 17.855873423738622 17.833878221133393 17.797140828309505 17.7521958646892 17.710359533277142 17.68312478227883 17.676276569636958 17.685697236850928 17.697742845719677 17.694892183731877 17.664219965719578 17.604387393403965 17.527721182648392 17.45684917870818 17.418046772464887 17.434145311083594 17.518670364746747 17.671497723382313 17.87627293749995 18.10096776090933 18.303503907275832 18.44281509150545 18.492394271036815 18.450544714508524 18.341704580029823 18.207047809492742 18.088167529186244 18.011540777015345 17.981010676719716 17.980936287453837 17.986969312023053 17.97814754651425 17.944657057577313 17.888999483323154 17.821863231616557 17.755840081368984 17.699981461256552 17.656962337078117 17.623299573756324 17.592036410528863 17.556535087845766 17.513657214398627 17.46502590373118 17.41625981422217 17.375252351267967 17.35070521073754 17.351102488946267 17.383282634108788 17.449998484875234 17.54728232608349 17.663613310397455 17.782463063947787 17.887833217827648 17.970284768812224 18.03020895909289 18.076258544967974 18.11934688855363 18.165164961253023 18.20940884492077 18.23890722840412 18.238672383915386 18.201143302058277 18.132060329120424 18.049165571545043 17.974368752524338 17.924005230220775 17.902450136897887 17.90152420661386 17.90446693356464 17.89156013363148 17.845274844794197 17.75440932289689 17.617328712706577 17.443900058844456 17.25508641515905 17.07937419977373 16.94630930796898 16.878777101046023 16.886565500138662 16.96371907877609 17.091014980076274 17.242774581895343 17.395057804608577 17.53146515695919 17.64420620529874 17.731105457063794 17.791677033938083 17.825415620945662 17.8331112698366 17.819328557737776 17.7933320965068 17.767131244635465 17.75156622239457 17.75265751487431 17.77006106737723 17.79806968703214 17.828351059827437 17.853175353518697 17.86809031680753 17.87331388161111 17.873305333375868 17.874337743692013 17.88076089801483 17.891713319600846 17.900353818786137 17.896520776937233 17.871572162172043 17.822544105849097 17.753026341376515 17.670272340511325 17.580624423058882 17.48651555153874 17.38717256370818 17.282423436750207 17.17672317722007 17.08042502845784 17.0074238368578 16.970788848642652 16.978941999342798 17.033933472309084 17.131684306498183 17.26319967312128 17.416037590642063 17.575913778989726 17.72839438905755 17.860253647471776 17.959996884947344 18.017675663865013 18.02494336007735 17.976377475621373 17.87207395605509 17.720120727188316 17.537025306459153 17.345148576028127 17.16805960167103 17.026000353469303 16.933240949437554 16.89734483739518 17.021264252151752 17.11286877626379 17.229575489542782 17.34710653560115 17.438150847580975 17.480833172565177 17.467175800010196 17.406853797880995 17.32380218894283 17.247103624294052 17.200382180976504 17.194036170274764 17.222623304322674 17.26742817500597 17.302993403116048 17.305971433253745 17.264142762054526 17.182687314196976 17.08473814084879 17.004867665553004 16.97719502344173 17.022634775294318 17.140582071486115 17.3083926206853 17.488455160456894 17.639514060756003 17.727723359968603 17.733853124598852 17.655178255391615 17.502713799411225 17.295857978126026 17.056843888749526 16.806743630717445 16.563571752031095 16.342005388699768 16.15388905062343 16.008940715068587 15.91537367036274 15.880110793438169 15.908130156384903 16.000785650247632 16.153773193348968 16.35609178246181 16.59108594423947 16.839441168033186 17.08277936231371 17.306310503868076 17.499921375098552 17.65813580504286 17.77957596682897 17.86600869693104 17.92081299603811 17.947345896877966 17.948439843121783 17.927822658374545 17.892501946511892 17.85369074917904 17.82439806736071 17.81428318208757 17.824763169474057 17.847608131697555 17.868164255720558 17.87162749206543 17.84937336980896 17.802747552441254 17.74304926321846 17.68769518656794 17.653584281068103 17.649808662980703 17.672799682098507 17.70670912511689 17.729635081093136 17.72314063836095 17.68053427943845 17.610113079432995 17.532475965486825 17.47393008437012 17.45901521802207 17.504137024326965 17.612816942813417 17.772794011966308 17.9562035730337 18.124685040300808 18.239907590004485 18.27680198279891 18.233869274830234 18.134834731620167 18.01954195682278 17.92762555957465 17.882680888594397 17.88450283617924 17.91246172474476 17.937153598767974 17.933788801205274 17.891149004971087 17.813324702295464 17.71528068549288 17.615512394698097 17.52918232964578 17.463967220334347 17.419406057469093 17.389300754722786 17.365772621725334 17.34310162189582 17.31981965771574 17.29868465858272 17.2853718251972 17.28699212540477 17.310744809743277 17.362158746450493 17.442601967197138 17.54693942962266 17.66310696692897 17.77483521494766 17.86697985107715 17.93112783276794 17.968571099329573 17.988779262332706 18.003702844560237 18.020593773239117 18.037303418679635 18.043172519717913 18.025594626745022 17.97864259369694 17.908362331118614 17.831145440278394 17.76603700244217 17.725694685385495 17.711123249768107 17.712266107899193 17.712788510910492 17.69577536673853 17.64809013237145 17.563064812146887 17.442138581238392 17.295663249207397 17.142292809892925 17.006187141625198 16.911940290790906 16.87826934715362 16.912457678624193 17.007815490484976 17.14563212335986 17.301242038137207 17.451656364832232 17.581157092579076 17.68241778990565 17.753616759804835 17.794548456060777 17.804908200336367 17.785679445979657 17.74187181870688 17.68389460587232 17.626079463827118 17.582968203725784 17.565278663272867 17.57731839030868 17.616598191928674 17.67541577307769 17.74367509499733 17.812044607994537 17.87445991232589 17.928968340180642 17.976349533938507 18.017040770141982 18.048168556102414 18.062861079284534 18.052773373140294 18.012496639568976 17.94293200735391 17.8511702833059 17.74677167264229 17.636929257625045 17.523905611937515 17.40659026147046 17.285079555840117 17.165007214033086 17.05859000572194 16.981721175951122 16.94899658015122 16.9694058020259 17.04430838362243 17.167581569937603 17.326944808294417 17.505734709747518 17.684997428491076 17.845859569489868 17.971773154687277 18.050067795191318 18.072668899005397 18.036468967083835 17.943942854182758 17.803944844583302 17.63180246645561 17.4477061852344 17.273298851631246 17.12766989879267 17.024539234331275 16.971604602337855 16.971322377418694 17.19953049461165